<?xml version="1.0"?>
<VTKFile type="UnstructuredGrid"  version="0.1"  >
<UnstructuredGrid>
<Piece  NumberOfPoints="861" NumberOfCells="1600">
<Points>
<DataArray  type="Float64"  NumberOfComponents="3"  format="ascii">0 0 0  0.1 0 0  0.2 0 0  0.3 0 0  0.4 0 0  0.5 0 0  0.6 0 0  0.7 0 0  0.8 0 0  0.9 0 0  1 0 0  1.1 0 0  1.2 0 0  1.3 0 0  1.4 0 0  1.5 0 0  1.6 0 0  1.7 0 0  1.8 0 0  1.9 0 0  2 0 0  0 0.1 0  0.1 0.1 0  0.2 0.1 0  0.3 0.1 0  0.4 0.1 0  0.5 0.1 0  0.6 0.1 0  0.7 0.1 0  0.8 0.1 0  0.9 0.1 0  1 0.1 0  1.1 0.1 0  1.2 0.1 0  1.3 0.1 0  1.4 0.1 0  1.5 0.1 0  1.6 0.1 0  1.7 0.1 0  1.8 0.1 0  1.9 0.1 0  2 0.1 0  0 0.2 0  0.1 0.2 0  0.2 0.2 0  0.3 0.2 0  0.4 0.2 0  0.5 0.2 0  0.6 0.2 0  0.7 0.2 0  0.8 0.2 0  0.9 0.2 0  1 0.2 0  1.1 0.2 0  1.2 0.2 0  1.3 0.2 0  1.4 0.2 0  1.5 0.2 0  1.6 0.2 0  1.7 0.2 0  1.8 0.2 0  1.9 0.2 0  2 0.2 0  0 0.3 0  0.1 0.3 0  0.2 0.3 0  0.3 0.3 0  0.4 0.3 0  0.5 0.3 0  0.6 0.3 0  0.7 0.3 0  0.8 0.3 0  0.9 0.3 0  1 0.3 0  1.1 0.3 0  1.2 0.3 0  1.3 0.3 0  1.4 0.3 0  1.5 0.3 0  1.6 0.3 0  1.7 0.3 0  1.8 0.3 0  1.9 0.3 0  2 0.3 0  0 0.4 0  0.1 0.4 0  0.2 0.4 0  0.3 0.4 0  0.4 0.4 0  0.5 0.4 0  0.6 0.4 0  0.7 0.4 0  0.8 0.4 0  0.9 0.4 0  1 0.4 0  1.1 0.4 0  1.2 0.4 0  1.3 0.4 0  1.4 0.4 0  1.5 0.4 0  1.6 0.4 0  1.7 0.4 0  1.8 0.4 0  1.9 0.4 0  2 0.4 0  0 0.5 0  0.1 0.5 0  0.2 0.5 0  0.3 0.5 0  0.4 0.5 0  0.5 0.5 0  0.6 0.5 0  0.7 0.5 0  0.8 0.5 0  0.9 0.5 0  1 0.5 0  1.1 0.5 0  1.2 0.5 0  1.3 0.5 0  1.4 0.5 0  1.5 0.5 0  1.6 0.5 0  1.7 0.5 0  1.8 0.5 0  1.9 0.5 0  2 0.5 0  0 0.6 0  0.1 0.6 0  0.2 0.6 0  0.3 0.6 0  0.4 0.6 0  0.5 0.6 0  0.6 0.6 0  0.7 0.6 0  0.8 0.6 0  0.9 0.6 0  1 0.6 0  1.1 0.6 0  1.2 0.6 0  1.3 0.6 0  1.4 0.6 0  1.5 0.6 0  1.6 0.6 0  1.7 0.6 0  1.8 0.6 0  1.9 0.6 0  2 0.6 0  0 0.7 0  0.1 0.7 0  0.2 0.7 0  0.3 0.7 0  0.4 0.7 0  0.5 0.7 0  0.6 0.7 0  0.7 0.7 0  0.8 0.7 0  0.9 0.7 0  1 0.7 0  1.1 0.7 0  1.2 0.7 0  1.3 0.7 0  1.4 0.7 0  1.5 0.7 0  1.6 0.7 0  1.7 0.7 0  1.8 0.7 0  1.9 0.7 0  2 0.7 0  0 0.8 0  0.1 0.8 0  0.2 0.8 0  0.3 0.8 0  0.4 0.8 0  0.5 0.8 0  0.6 0.8 0  0.7 0.8 0  0.8 0.8 0  0.9 0.8 0  1 0.8 0  1.1 0.8 0  1.2 0.8 0  1.3 0.8 0  1.4 0.8 0  1.5 0.8 0  1.6 0.8 0  1.7 0.8 0  1.8 0.8 0  1.9 0.8 0  2 0.8 0  0 0.9 0  0.1 0.9 0  0.2 0.9 0  0.3 0.9 0  0.4 0.9 0  0.5 0.9 0  0.6 0.9 0  0.7 0.9 0  0.8 0.9 0  0.9 0.9 0  1 0.9 0  1.1 0.9 0  1.2 0.9 0  1.3 0.9 0  1.4 0.9 0  1.5 0.9 0  1.6 0.9 0  1.7 0.9 0  1.8 0.9 0  1.9 0.9 0  2 0.9 0  0 1 0  0.1 1 0  0.2 1 0  0.3 1 0  0.4 1 0  0.5 1 0  0.6 1 0  0.7 1 0  0.8 1 0  0.9 1 0  1 1 0  1.1 1 0  1.2 1 0  1.3 1 0  1.4 1 0  1.5 1 0  1.6 1 0  1.7 1 0  1.8 1 0  1.9 1 0  2 1 0  0 1.1 0  0.1 1.1 0  0.2 1.1 0  0.3 1.1 0  0.4 1.1 0  0.5 1.1 0  0.6 1.1 0  0.7 1.1 0  0.8 1.1 0  0.9 1.1 0  1 1.1 0  1.1 1.1 0  1.2 1.1 0  1.3 1.1 0  1.4 1.1 0  1.5 1.1 0  1.6 1.1 0  1.7 1.1 0  1.8 1.1 0  1.9 1.1 0  2 1.1 0  0 1.2 0  0.1 1.2 0  0.2 1.2 0  0.3 1.2 0  0.4 1.2 0  0.5 1.2 0  0.6 1.2 0  0.7 1.2 0  0.8 1.2 0  0.9 1.2 0  1 1.2 0  1.1 1.2 0  1.2 1.2 0  1.3 1.2 0  1.4 1.2 0  1.5 1.2 0  1.6 1.2 0  1.7 1.2 0  1.8 1.2 0  1.9 1.2 0  2 1.2 0  0 1.3 0  0.1 1.3 0  0.2 1.3 0  0.3 1.3 0  0.4 1.3 0  0.5 1.3 0  0.6 1.3 0  0.7 1.3 0  0.8 1.3 0  0.9 1.3 0  1 1.3 0  1.1 1.3 0  1.2 1.3 0  1.3 1.3 0  1.4 1.3 0  1.5 1.3 0  1.6 1.3 0  1.7 1.3 0  1.8 1.3 0  1.9 1.3 0  2 1.3 0  0 1.4 0  0.1 1.4 0  0.2 1.4 0  0.3 1.4 0  0.4 1.4 0  0.5 1.4 0  0.6 1.4 0  0.7 1.4 0  0.8 1.4 0  0.9 1.4 0  1 1.4 0  1.1 1.4 0  1.2 1.4 0  1.3 1.4 0  1.4 1.4 0  1.5 1.4 0  1.6 1.4 0  1.7 1.4 0  1.8 1.4 0  1.9 1.4 0  2 1.4 0  0 1.5 0  0.1 1.5 0  0.2 1.5 0  0.3 1.5 0  0.4 1.5 0  0.5 1.5 0  0.6 1.5 0  0.7 1.5 0  0.8 1.5 0  0.9 1.5 0  1 1.5 0  1.1 1.5 0  1.2 1.5 0  1.3 1.5 0  1.4 1.5 0  1.5 1.5 0  1.6 1.5 0  1.7 1.5 0  1.8 1.5 0  1.9 1.5 0  2 1.5 0  0 1.6 0  0.1 1.6 0  0.2 1.6 0  0.3 1.6 0  0.4 1.6 0  0.5 1.6 0  0.6 1.6 0  0.7 1.6 0  0.8 1.6 0  0.9 1.6 0  1 1.6 0  1.1 1.6 0  1.2 1.6 0  1.3 1.6 0  1.4 1.6 0  1.5 1.6 0  1.6 1.6 0  1.7 1.6 0  1.8 1.6 0  1.9 1.6 0  2 1.6 0  0 1.7 0  0.1 1.7 0  0.2 1.7 0  0.3 1.7 0  0.4 1.7 0  0.5 1.7 0  0.6 1.7 0  0.7 1.7 0  0.8 1.7 0  0.9 1.7 0  1 1.7 0  1.1 1.7 0  1.2 1.7 0  1.3 1.7 0  1.4 1.7 0  1.5 1.7 0  1.6 1.7 0  1.7 1.7 0  1.8 1.7 0  1.9 1.7 0  2 1.7 0  0 1.8 0  0.1 1.8 0  0.2 1.8 0  0.3 1.8 0  0.4 1.8 0  0.5 1.8 0  0.6 1.8 0  0.7 1.8 0  0.8 1.8 0  0.9 1.8 0  1 1.8 0  1.1 1.8 0  1.2 1.8 0  1.3 1.8 0  1.4 1.8 0  1.5 1.8 0  1.6 1.8 0  1.7 1.8 0  1.8 1.8 0  1.9 1.8 0  2 1.8 0  0 1.9 0  0.1 1.9 0  0.2 1.9 0  0.3 1.9 0  0.4 1.9 0  0.5 1.9 0  0.6 1.9 0  0.7 1.9 0  0.8 1.9 0  0.9 1.9 0  1 1.9 0  1.1 1.9 0  1.2 1.9 0  1.3 1.9 0  1.4 1.9 0  1.5 1.9 0  1.6 1.9 0  1.7 1.9 0  1.8 1.9 0  1.9 1.9 0  2 1.9 0  0 2 0  0.1 2 0  0.2 2 0  0.3 2 0  0.4 2 0  0.5 2 0  0.6 2 0  0.7 2 0  0.8 2 0  0.9 2 0  1 2 0  1.1 2 0  1.2 2 0  1.3 2 0  1.4 2 0  1.5 2 0  1.6 2 0  1.7 2 0  1.8 2 0  1.9 2 0  2 2 0  0 2.1 0  0.1 2.1 0  0.2 2.1 0  0.3 2.1 0  0.4 2.1 0  0.5 2.1 0  0.6 2.1 0  0.7 2.1 0  0.8 2.1 0  0.9 2.1 0  1 2.1 0  1.1 2.1 0  1.2 2.1 0  1.3 2.1 0  1.4 2.1 0  1.5 2.1 0  1.6 2.1 0  1.7 2.1 0  1.8 2.1 0  1.9 2.1 0  2 2.1 0  0 2.2 0  0.1 2.2 0  0.2 2.2 0  0.3 2.2 0  0.4 2.2 0  0.5 2.2 0  0.6 2.2 0  0.7 2.2 0  0.8 2.2 0  0.9 2.2 0  1 2.2 0  1.1 2.2 0  1.2 2.2 0  1.3 2.2 0  1.4 2.2 0  1.5 2.2 0  1.6 2.2 0  1.7 2.2 0  1.8 2.2 0  1.9 2.2 0  2 2.2 0  0 2.3 0  0.1 2.3 0  0.2 2.3 0  0.3 2.3 0  0.4 2.3 0  0.5 2.3 0  0.6 2.3 0  0.7 2.3 0  0.8 2.3 0  0.9 2.3 0  1 2.3 0  1.1 2.3 0  1.2 2.3 0  1.3 2.3 0  1.4 2.3 0  1.5 2.3 0  1.6 2.3 0  1.7 2.3 0  1.8 2.3 0  1.9 2.3 0  2 2.3 0  0 2.4 0  0.1 2.4 0  0.2 2.4 0  0.3 2.4 0  0.4 2.4 0  0.5 2.4 0  0.6 2.4 0  0.7 2.4 0  0.8 2.4 0  0.9 2.4 0  1 2.4 0  1.1 2.4 0  1.2 2.4 0  1.3 2.4 0  1.4 2.4 0  1.5 2.4 0  1.6 2.4 0  1.7 2.4 0  1.8 2.4 0  1.9 2.4 0  2 2.4 0  0 2.5 0  0.1 2.5 0  0.2 2.5 0  0.3 2.5 0  0.4 2.5 0  0.5 2.5 0  0.6 2.5 0  0.7 2.5 0  0.8 2.5 0  0.9 2.5 0  1 2.5 0  1.1 2.5 0  1.2 2.5 0  1.3 2.5 0  1.4 2.5 0  1.5 2.5 0  1.6 2.5 0  1.7 2.5 0  1.8 2.5 0  1.9 2.5 0  2 2.5 0  0 2.6 0  0.1 2.6 0  0.2 2.6 0  0.3 2.6 0  0.4 2.6 0  0.5 2.6 0  0.6 2.6 0  0.7 2.6 0  0.8 2.6 0  0.9 2.6 0  1 2.6 0  1.1 2.6 0  1.2 2.6 0  1.3 2.6 0  1.4 2.6 0  1.5 2.6 0  1.6 2.6 0  1.7 2.6 0  1.8 2.6 0  1.9 2.6 0  2 2.6 0  0 2.7 0  0.1 2.7 0  0.2 2.7 0  0.3 2.7 0  0.4 2.7 0  0.5 2.7 0  0.6 2.7 0  0.7 2.7 0  0.8 2.7 0  0.9 2.7 0  1 2.7 0  1.1 2.7 0  1.2 2.7 0  1.3 2.7 0  1.4 2.7 0  1.5 2.7 0  1.6 2.7 0  1.7 2.7 0  1.8 2.7 0  1.9 2.7 0  2 2.7 0  0 2.8 0  0.1 2.8 0  0.2 2.8 0  0.3 2.8 0  0.4 2.8 0  0.5 2.8 0  0.6 2.8 0  0.7 2.8 0  0.8 2.8 0  0.9 2.8 0  1 2.8 0  1.1 2.8 0  1.2 2.8 0  1.3 2.8 0  1.4 2.8 0  1.5 2.8 0  1.6 2.8 0  1.7 2.8 0  1.8 2.8 0  1.9 2.8 0  2 2.8 0  0 2.9 0  0.1 2.9 0  0.2 2.9 0  0.3 2.9 0  0.4 2.9 0  0.5 2.9 0  0.6 2.9 0  0.7 2.9 0  0.8 2.9 0  0.9 2.9 0  1 2.9 0  1.1 2.9 0  1.2 2.9 0  1.3 2.9 0  1.4 2.9 0  1.5 2.9 0  1.6 2.9 0  1.7 2.9 0  1.8 2.9 0  1.9 2.9 0  2 2.9 0  0 3 0  0.1 3 0  0.2 3 0  0.3 3 0  0.4 3 0  0.5 3 0  0.6 3 0  0.7 3 0  0.8 3 0  0.9 3 0  1 3 0  1.1 3 0  1.2 3 0  1.3 3 0  1.4 3 0  1.5 3 0  1.6 3 0  1.7 3 0  1.8 3 0  1.9 3 0  2 3 0  0 3.1 0  0.1 3.1 0  0.2 3.1 0  0.3 3.1 0  0.4 3.1 0  0.5 3.1 0  0.6 3.1 0  0.7 3.1 0  0.8 3.1 0  0.9 3.1 0  1 3.1 0  1.1 3.1 0  1.2 3.1 0  1.3 3.1 0  1.4 3.1 0  1.5 3.1 0  1.6 3.1 0  1.7 3.1 0  1.8 3.1 0  1.9 3.1 0  2 3.1 0  0 3.2 0  0.1 3.2 0  0.2 3.2 0  0.3 3.2 0  0.4 3.2 0  0.5 3.2 0  0.6 3.2 0  0.7 3.2 0  0.8 3.2 0  0.9 3.2 0  1 3.2 0  1.1 3.2 0  1.2 3.2 0  1.3 3.2 0  1.4 3.2 0  1.5 3.2 0  1.6 3.2 0  1.7 3.2 0  1.8 3.2 0  1.9 3.2 0  2 3.2 0  0 3.3 0  0.1 3.3 0  0.2 3.3 0  0.3 3.3 0  0.4 3.3 0  0.5 3.3 0  0.6 3.3 0  0.7 3.3 0  0.8 3.3 0  0.9 3.3 0  1 3.3 0  1.1 3.3 0  1.2 3.3 0  1.3 3.3 0  1.4 3.3 0  1.5 3.3 0  1.6 3.3 0  1.7 3.3 0  1.8 3.3 0  1.9 3.3 0  2 3.3 0  0 3.4 0  0.1 3.4 0  0.2 3.4 0  0.3 3.4 0  0.4 3.4 0  0.5 3.4 0  0.6 3.4 0  0.7 3.4 0  0.8 3.4 0  0.9 3.4 0  1 3.4 0  1.1 3.4 0  1.2 3.4 0  1.3 3.4 0  1.4 3.4 0  1.5 3.4 0  1.6 3.4 0  1.7 3.4 0  1.8 3.4 0  1.9 3.4 0  2 3.4 0  0 3.5 0  0.1 3.5 0  0.2 3.5 0  0.3 3.5 0  0.4 3.5 0  0.5 3.5 0  0.6 3.5 0  0.7 3.5 0  0.8 3.5 0  0.9 3.5 0  1 3.5 0  1.1 3.5 0  1.2 3.5 0  1.3 3.5 0  1.4 3.5 0  1.5 3.5 0  1.6 3.5 0  1.7 3.5 0  1.8 3.5 0  1.9 3.5 0  2 3.5 0  0 3.6 0  0.1 3.6 0  0.2 3.6 0  0.3 3.6 0  0.4 3.6 0  0.5 3.6 0  0.6 3.6 0  0.7 3.6 0  0.8 3.6 0  0.9 3.6 0  1 3.6 0  1.1 3.6 0  1.2 3.6 0  1.3 3.6 0  1.4 3.6 0  1.5 3.6 0  1.6 3.6 0  1.7 3.6 0  1.8 3.6 0  1.9 3.6 0  2 3.6 0  0 3.7 0  0.1 3.7 0  0.2 3.7 0  0.3 3.7 0  0.4 3.7 0  0.5 3.7 0  0.6 3.7 0  0.7 3.7 0  0.8 3.7 0  0.9 3.7 0  1 3.7 0  1.1 3.7 0  1.2 3.7 0  1.3 3.7 0  1.4 3.7 0  1.5 3.7 0  1.6 3.7 0  1.7 3.7 0  1.8 3.7 0  1.9 3.7 0  2 3.7 0  0 3.8 0  0.1 3.8 0  0.2 3.8 0  0.3 3.8 0  0.4 3.8 0  0.5 3.8 0  0.6 3.8 0  0.7 3.8 0  0.8 3.8 0  0.9 3.8 0  1 3.8 0  1.1 3.8 0  1.2 3.8 0  1.3 3.8 0  1.4 3.8 0  1.5 3.8 0  1.6 3.8 0  1.7 3.8 0  1.8 3.8 0  1.9 3.8 0  2 3.8 0  0 3.9 0  0.1 3.9 0  0.2 3.9 0  0.3 3.9 0  0.4 3.9 0  0.5 3.9 0  0.6 3.9 0  0.7 3.9 0  0.8 3.9 0  0.9 3.9 0  1 3.9 0  1.1 3.9 0  1.2 3.9 0  1.3 3.9 0  1.4 3.9 0  1.5 3.9 0  1.6 3.9 0  1.7 3.9 0  1.8 3.9 0  1.9 3.9 0  2 3.9 0  0 4 0  0.1 4 0  0.2 4 0  0.3 4 0  0.4 4 0  0.5 4 0  0.6 4 0  0.7 4 0  0.8 4 0  0.9 4 0  1 4 0  1.1 4 0  1.2 4 0  1.3 4 0  1.4 4 0  1.5 4 0  1.6 4 0  1.7 4 0  1.8 4 0  1.9 4 0  2 4 0  </DataArray>
</Points>
<Cells>
[...]
<PointData  Vectors="f_22-0"> 
<DataArray  type="Float64"  Name="f_22-0"  NumberOfComponents="3" format="ascii">0.0000000000000000e+00 0.0000000000000000e+00 0.0000000000000000e+00  0.0000000000000000e+00 0.0000000000000000e+00 0.0000000000000000e+00  0.0000000000000000e+00 0.0000000000000000e+00 0.0000000000000000e+00  0.0000000000000000e+00 0.0000000000000000e+00 0.0000000000000000e+00  0.0000000000000000e+00 0.0000000000000000e+00 0.0000000000000000e+00  0.0000000000000000e+00 0.0000000000000000e+00 0.0000000000000000e+00  0.0000000000000000e+00 0.0000000000000000e+00 0.0000000000000000e+00  0.0000000000000000e+00 0.0000000000000000e+00 0.0000000000000000e+00  0.0000000000000000e+00 0.0000000000000000e+00 0.0000000000000000e+00  0.0000000000000000e+00 0.0000000000000000e+00 0.0000000000000000e+00  0.0000000000000000e+00 0.0000000000000000e+00 0.0000000000000000e+00  0.0000000000000000e+00 0.0000000000000000e+00 0.0000000000000000e+00  0.0000000000000000e+00 0.0000000000000000e+00 0.0000000000000000e+00  0.0000000000000000e+00 0.0000000000000000e+00 0.0000000000000000e+00  0.0000000000000000e+00 0.0000000000000000e+00 0.0000000000000000e+00  0.0000000000000000e+00 0.0000000000000000e+00 0.0000000000000000e+00  0.0000000000000000e+00 0.0000000000000000e+00 0.0000000000000000e+00  0.0000000000000000e+00 0.0000000000000000e+00 0.0000000000000000e+00  0.0000000000000000e+00 0.0000000000000000e+00 0.0000000000000000e+00  0.0000000000000000e+00 0.0000000000000000e+00 0.0000000000000000e+00  0.0000000000000000e+00 0.0000000000000000e+00 0.0000000000000000e+00  0.0000000000000000e+00 0.0000000000000000e+00 0.0000000000000000e+00  -6.5142939219777354e+00 6.0035585197413175e+00 0.0000000000000000e+00  -1.3245025859763931e+01 1.0937435253949785e+00 0.0000000000000000e+00  1.2358611795063073e+00 -1.2152526708611701e+01 0.0000000000000000e+00  2.9006813565655897e+01 -2.8446358467859628e+01 0.0000000000000000e+00  8.8082916273988204e+01 -4.3213154445509566e+01 0.0000000000000000e+00  1.4928070217815610e+02 -3.4853633062525468e+01 0.0000000000000000e+00  1.8833995197128763e+02 -1.8401171892176777e+01 0.0000000000000000e+00  2.0403090489568891e+02 -4.2502188699256349e+00 0.0000000000000000e+00  2.0211569070572972e+02 6.7496035583080847e+00 0.0000000000000000e+00  1.8595000048028118e+02 1.3082261946340129e+01 0.0000000000000000e+00  1.6610204104540807e+02 1.3238736564908036e+01 0.0000000000000000e+00  1.4920977619908891e+02 1.2124228085908937e+01 0.0000000000000000e+00  1.3278703301759234e+02 1.2479596954497129e+01 0.0000000000000000e+00  1.1511496580743786e+02 1.3129860485599632e+01 0.0000000000000000e+00  9.6588614070413726e+01 1.4133721851963353e+01 0.0000000000000000e+00  7.6100979282844648e+01 1.5089665070301212e+01 0.0000000000000000e+00  5.4756781576004130e+01 1.5164942903000931e+01 0.0000000000000000e+00  3.5348895835710664e+01 1.2340215926795308e+01 0.0000000000000000e+00  1.6960245353120968e+01 1.7168758708286205e+01 0.0000000000000000e+00  0.0000000000000000e+00 0.0000000000000000e+00 0.0000000000000000e+00  0.0000000000000000e+00 0.0000000000000000e+00 0.0000000000000000e+00  -1.0362945522535755e+01 1.5619279520940561e+01 0.0000000000000000e+00  -3.8795330957213721e+01 -1.2909769193372279e+01 0.0000000000000000e+00  -1.9512985270022373e+01 -6.0988207656295998e+01 0.0000000000000000e+00  -6.6930385662579965e+00 -8.9680863589718186e+01 0.0000000000000000e+00  7.7561731355317420e+01 -1.1369696812947286e+02 0.0000000000000000e+00  1.4867061742923235e+02 -8.1318053103222425e+01 0.0000000000000000e+00  1.8194659859595822e+02 -4.1114330722242585e+01 0.0000000000000000e+00  1.8714591748275728e+02 -3.9210652663559276e+00 0.0000000000000000e+00  1.7403680316152366e+02 2.2006514672134266e+01 0.0000000000000000e+00  1.4564286883751808e+02 3.2395253849125965e+01 0.0000000000000000e+00  1.2716770173123136e+02 2.9050160872605510e+01 0.0000000000000000e+00  1.1574715231944779e+02 2.4681294930871385e+01 0.0000000000000000e+00  1.0449715358029322e+02 2.6097080879064194e+01 0.0000000000000000e+00  9.1489857677967564e+01 2.8824190277346464e+01 0.0000000000000000e+00  7.6819054429060742e+01 3.2706668005443248e+01 0.0000000000000000e+00  5.7066068497060080e+01 3.3678118740508971e+01 0.0000000000000000e+00  3.9539609258859947e+01 3.2454502301658806e+01 0.0000000000000000e+00  2.4162685252994251e+01 2.7336335011830037e+01 0.0000000000000000e+00  1.0632382765598337e+01 3.4589493162766580e+01 0.0000000000000000e+00  0.0000000000000000e+00 0.0000000000000000e+00 0.0000000000000000e+00  0.0000000000000000e+00 0.0000000000000000e+00 0.0000000000000000e+00  -2.6751148939532875e+01 4.6274167492426898e+01 0.0000000000000000e+00  -8.2938034860588175e+01 1.6731846022315896e+01 0.0000000000000000e+00  -1.7211931321899314e+01 1.4938817103841561e+01 0.0000000000000000e+00  -1.1199569710024257e+02 -9.8411632874965136e+00 0.0000000000000000e+00  8.2130442506062906e+01 -2.0889738316011028e+02 0.0000000000000000e+00  2.3567134257652350e+02 -1.5170377729936945e+02 0.0000000000000000e+00  2.4411611725569898e+02 -4.6032539974467014e+01 0.0000000000000000e+00  2.3290587766473470e+02 1.0468866407362313e+01 0.0000000000000000e+00  1.9172734130695923e+02 3.7273073717569979e+01 0.0000000000000000e+00  1.7739067434719468e+02 4.5994861189136806e+01 0.0000000000000000e+00  1.7410931735744981e+02 5.5212966059827437e+01 0.0000000000000000e+00  1.3218928790093284e+02 4.0908737315052846e+01 0.0000000000000000e+00  1.1511765785644280e+02 3.8964477498072945e+01 0.0000000000000000e+00  1.0176412598973911e+02 4.6106259191486465e+01 0.0000000000000000e+00  8.0812539707894388e+01 4.6078108634187558e+01 0.0000000000000000e+00  6.3579179798904363e+01 4.4609603674459898e+01 0.0000000000000000e+00  5.3158873410853978e+01 5.2220366461220920e+01 0.0000000000000000e+00  2.9847683209588194e+01 4.4552411392349519e+01 0.0000000000000000e+00  1.0840754918206125e+01 4.9441332937894593e+01 0.0000000000000000e+00  0.0000000000000000e+00 0.0000000000000000e+00 0.0000000000000000e+00  0.0000000000000000e+00 0.0000000000000000e+00 0.0000000000000000e+00  -4.0936749778356422e+01 8.4699997953280288e+01 0.0000000000000000e+00  -9.4317358891546078e+01 3.9146961991809910e+01 0.0000000000000000e+00  -7.8757665411178635e+01 -2.3072700339280100e+01 0.0000000000000000e+00  -6.9957790537902986e+02 -5.3548617320717972e+02 0.0000000000000000e+00  4.3774012211213318e+02 -1.0758754782910953e+03 0.0000000000000000e+00  4.1073396825705873e+02 -7.6589971444117481e+01 0.0000000000000000e+00  3.4285383564289702e+02 -2.7240629235999112e+01 0.0000000000000000e+00  2.6141147607528859e+02 3.2355327102598224e+01 0.0000000000000000e+00  2.3385101806724083e+02 4.3653181730898204e+01 0.0000000000000000e+00  2.8597191764012462e+02 6.1548776120492988e+01 0.0000000000000000e+00  2.7954854267314829e+02 9.1934693478854655e+01 0.0000000000000000e+00  2.1876916935001003e+02 1.0573133585115512e+02 0.0000000000000000e+00  1.2875312414974283e+02 6.2987283948692053e+01 0.0000000000000000e+00  1.0139589212265295e+02 5.5907049382302262e+01 0.0000000000000000e+00  8.1155903295134053e+01 5.3426947628545292e+01 0.0000000000000000e+00  8.3663527160022213e+01 6.4925918188899317e+01 0.0000000000000000e+00  7.8706781407606613e+01 7.7040735357165261e+01 0.0000000000000000e+00  5.7275208642046842e+01 7.6263571680589308e+01 0.0000000000000000e+00  1.7451300174714923e+01 7.1129947873689389e+01 0.0000000000000000e+00  0.0000000000000000e+00 0.0000000000000000e+00 0.0000000000000000e+00  0.0000000000000000e+00 0.0000000000000000e+00 0.0000000000000000e+00  -6.0603378832246442e+01 1.5260528615287382e+02 0.0000000000000000e+00  -1.6256845654388360e+02 1.4645927110877162e+02 0.0000000000000000e+00  -3.5574282212574025e+02 2.3830099873555537e+02 0.0000000000000000e+00  -9.7998576692610641e+02 4.6165847815166615e+02 0.0000000000000000e+00  9.3568254123597015e+01 1.9741398713492038e+02 0.0000000000000000e+00  1.4545384947430016e+03 -2.7336670875695795e+01 0.0000000000000000e+00  5.5128226529823610e+02 1.8291241931950006e+02 0.0000000000000000e+00  3.7218340619011650e+02 9.5864510118382810e+01 0.0000000000000000e+00  3.6163703924701531e+02 9.5552422012273354e+01 0.0000000000000000e+00  2.8723715026760800e+02 8.9186977863744630e+01 0.0000000000000000e+00  2.0423784047914100e+02 8.7102451559252316e+01 0.0000000000000000e+00  2.3117816610125948e+02 1.3637150741893277e+02 0.0000000000000000e+00  2.1068394123505831e+02 1.3928014984656474e+02 0.0000000000000000e+00  1.2845078588783952e+02 8.1529395774646147e+01 0.0000000000000000e+00  1.1218024372536127e+02 8.6563741345259857e+01 0.0000000000000000e+00  9.3062276121695774e+01 9.3614559353115482e+01 0.0000000000000000e+00  5.4121358350491889e+01 7.5705522699664343e+01 0.0000000000000000e+00  4.9735247328820492e+01 7.7792642585778808e+01 0.0000000000000000e+00  4.2500395186312446e+01 1.2688886482657942e+02 0.0000000000000000e+00  0.0000000000000000e+00 0.0000000000000000e+00 0.0000000000000000e+00  0.0000000000000000e+00 0.0000000000000000e+00 0.0000000000000000e+00  -4.6882770203898119e+01 2.9138444590360064e+02 0.0000000000000000e+00  -1.4612261124682030e+02 3.1358922631665064e+02 0.0000000000000000e+00  -1.9450189347496433e+02 3.5576843292492021e+02 0.0000000000000000e+00  -9.5462680133220999e+01 3.2286446218361084e+02 0.0000000000000000e+00  -8.8037660739118138e+01 8.3591449379471737e+02 0.0000000000000000e+00  5.9445724493642524e+02 6.6761666188901734e+02 0.0000000000000000e+00  3.4914913712452255e+02 4.8762021020328950e+02 0.0000000000000000e+00  4.6174893007771152e+02 2.9430728244741402e+02 0.0000000000000000e+00  3.0295559943387968e+02 1.8589546875706802e+02 0.0000000000000000e+00  1.8349242224943782e+02 1.2505142440855134e+02 0.0000000000000000e+00  1.5403778911462820e+02 1.1396623708507583e+02 0.0000000000000000e+00  1.3620311505229620e+02 1.1260936177547711e+02 0.0000000000000000e+00  1.6832124356743651e+02 1.6256302542736708e+02 0.0000000000000000e+00  1.6778707960801387e+02 1.6286198690394988e+02 0.0000000000000000e+00  1.2077101652349259e+02 1.3717227738931035e+02 0.0000000000000000e+00  6.5236209215925498e+01 9.7606450977944448e+01 0.0000000000000000e+00  4.3692736365453001e+01 8.9314965655903265e+01 0.0000000000000000e+00  2.6940044887182804e+01 8.4433144724383837e+01 0.0000000000000000e+00  1.8264516264953883e+01 1.4593648232844595e+02 0.0000000000000000e+00  0.0000000000000000e+00 0.0000000000000000e+00 0.0000000000000000e+00  0.0000000000000000e+00 0.0000000000000000e+00 0.0000000000000000e+00  -2.8319618282714384e+01 3.2840011108854708e+02 0.0000000000000000e+00  -3.4910112044151653e+01 3.0650023646700549e+02 0.0000000000000000e+00  -2.4472981056965910e+01 2.8739710423179162e+02 0.0000000000000000e+00  -3.1304998030895224e+01 3.5929763867138178e+02 0.0000000000000000e+00  5.3304637242395287e+01 4.2234477975697956e+02 0.0000000000000000e+00  1.8972317334957390e+02 2.7284176828783308e+02 0.0000000000000000e+00  1.4404097519715768e+02 2.7585193059210872e+02 0.0000000000000000e+00  2.4316664034811231e+02 2.8901264541989150e+02 0.0000000000000000e+00  1.7662135679366193e+02 2.0607580632106027e+02 0.0000000000000000e+00  1.6222436975039437e+02 1.7323800990985498e+02 0.0000000000000000e+00  1.4680653837002339e+02 1.5952761117332992e+02 0.0000000000000000e+00  1.1319657571514890e+02 1.4062820895866597e+02 0.0000000000000000e+00  8.8600720186631492e+01 1.4021679492677171e+02 0.0000000000000000e+00  9.4245673027699027e+01 1.6858192830719560e+02 0.0000000000000000e+00  7.8125940930043200e+01 1.3938140990327923e+02 0.0000000000000000e+00  5.9557877403798393e+01 1.1887885222405919e+02 0.0000000000000000e+00  4.6643203508526547e+01 1.2125369786266201e+02 0.0000000000000000e+00  2.3507385416715469e+01 1.1243075165540998e+02 0.0000000000000000e+00  2.0313205310183289e+00 1.5058414029744259e+02 0.0000000000000000e+00  0.0000000000000000e+00 0.0000000000000000e+00 0.0000000000000000e+00  0.0000000000000000e+00 0.0000000000000000e+00 0.0000000000000000e+00  -1.3323678357810378e+01 3.3683183281975346e+02 0.0000000000000000e+00  -5.3265496649680069e+00 2.8835225632282152e+02 0.0000000000000000e+00  2.4945925938926008e+00 3.1320202385094393e+02 0.0000000000000000e+00  1.8971568238105046e+01 3.3667031118129410e+02 0.0000000000000000e+00  5.9153186374444282e+01 3.5227747963134857e+02 0.0000000000000000e+00  1.1228385310853000e+02 3.3135141756356268e+02 0.0000000000000000e+00  1.1446810548126695e+02 3.1315881113919147e+02 0.0000000000000000e+00  1.4023980654009014e+02 2.7893069832720988e+02 0.0000000000000000e+00  1.3815093222543618e+02 2.3974322907323238e+02 0.0000000000000000e+00  1.4481618472773371e+02 2.0970215009188888e+02 0.0000000000000000e+00  1.2258751636249964e+02 1.8164058733214597e+02 0.0000000000000000e+00  1.0087250468343511e+02 1.6464946527280071e+02 0.0000000000000000e+00  8.1031668323396403e+01 1.5881443435371233e+02 0.0000000000000000e+00  6.8415806135737213e+01 1.6044836605320097e+02 0.0000000000000000e+00  6.3326784609030980e+01 1.5496894357084841e+02 0.0000000000000000e+00  5.6823939055661960e+01 1.4705043671728222e+02 0.0000000000000000e+00  4.0929357563844519e+01 1.4149108510683450e+02 0.0000000000000000e+00  2.2812607019100039e+01 1.2904270285685703e+02 0.0000000000000000e+00  6.9256369405712253e+00 1.6851291268041112e+02 0.0000000000000000e+00  0.0000000000000000e+00 0.0000000000000000e+00 0.0000000000000000e+00  0.0000000000000000e+00 0.0000000000000000e+00 0.0000000000000000e+00  -1.1005860134418268e+00 3.4325083554404017e+02 0.0000000000000000e+00  4.3788599783309055e+00 2.8250289711925478e+02 0.0000000000000000e+00  1.6033896789915556e+01 3.0400383931455031e+02 0.0000000000000000e+00  3.1133314040793859e+01 3.0875667039916556e+02 0.0000000000000000e+00  5.6591219500577644e+01 3.1173611558932447e+02 0.0000000000000000e+00  8.4527365897559534e+01 2.9639520509390474e+02 0.0000000000000000e+00  9.7127091450032381e+01 2.7785234902280871e+02 0.0000000000000000e+00  1.1114779574920144e+02 2.5868894786649230e+02 0.0000000000000000e+00  1.1693273272928886e+02 2.3841500810599553e+02 0.0000000000000000e+00  1.1584111659017610e+02 2.1405098788722788e+02 0.0000000000000000e+00  1.0305694305372754e+02 1.9450030598002769e+02 0.0000000000000000e+00  9.1079885554797272e+01 1.8202696193513285e+02 0.0000000000000000e+00  7.7473935959054572e+01 1.7416569763866323e+02 0.0000000000000000e+00  6.5872936985190421e+01 1.7023308314129656e+02 0.0000000000000000e+00  5.8372696194380367e+01 1.6575414871797088e+02 0.0000000000000000e+00  4.8915233677577511e+01 1.5802921870105348e+02 0.0000000000000000e+00  3.5352555354840661e+01 1.5413595183667590e+02 0.0000000000000000e+00  2.2254666080396092e+01 1.4341047497083355e+02 0.0000000000000000e+00  9.4448633661722745e+00 1.8317573164911411e+02 0.0000000000000000e+00  0.0000000000000000e+00 0.0000000000000000e+00 0.0000000000000000e+00  0.0000000000000000e+00 0.0000000000000000e+00 0.0000000000000000e+00  3.8005836167451834e+00 3.3943683826178290e+02 0.0000000000000000e+00  1.0920254328988351e+01 2.7233658651129122e+02 0.0000000000000000e+00  2.1264231853553699e+01 2.9091270909144646e+02 0.0000000000000000e+00  3.4806045554487881e+01 2.9092703590545426e+02 0.0000000000000000e+00  5.2496055486754130e+01 2.9021327526994543e+02 0.0000000000000000e+00  6.9813938564858304e+01 2.8167849935588339e+02 0.0000000000000000e+00  8.2082623868552972e+01 2.7024185857832572e+02 0.0000000000000000e+00  9.2141423712548573e+01 2.5510619246089828e+02 0.0000000000000000e+00  9.6175048985162590e+01 2.3756268016832604e+02 0.0000000000000000e+00  9.5348759189960390e+01 2.1982407004215094e+02 0.0000000000000000e+00  8.9182149227870553e+01 2.0518940520360459e+02 0.0000000000000000e+00  8.0880484694639136e+01 1.9357169477506736e+02 0.0000000000000000e+00  7.0781309259755304e+01 1.8514877631670726e+02 0.0000000000000000e+00  6.1377861143030451e+01 1.7926077019699866e+02 0.0000000000000000e+00  5.2633070302042412e+01 1.7403744783392455e+02 0.0000000000000000e+00  4.2949504833314762e+01 1.6857044382991381e+02 0.0000000000000000e+00  3.2079045167065026e+01 1.6681639574590974e+02 0.0000000000000000e+00  2.0944507678562083e+01 1.5538436812139363e+02 0.0000000000000000e+00  9.3652117995545705e+00 1.9668781865145914e+02 0.0000000000000000e+00  0.0000000000000000e+00 0.0000000000000000e+00 0.0000000000000000e+00  0.0000000000000000e+00 0.0000000000000000e+00 0.0000000000000000e+00  5.8124768392396220e+00 3.3215846943985537e+02 0.0000000000000000e+00  1.3750379631344995e+01 2.6383771514028217e+02 0.0000000000000000e+00  2.3373405925320718e+01 2.8001906477482396e+02 0.0000000000000000e+00  3.4884753935115775e+01 2.7709412933917946e+02 0.0000000000000000e+00  4.7835445611017896e+01 2.7502303790443443e+02 0.0000000000000000e+00  6.0255847823363879e+01 2.6844773661311899e+02 0.0000000000000000e+00  7.0301433998074728e+01 2.5916301532942902e+02 0.0000000000000000e+00  7.7700257594650211e+01 2.4751298033428779e+02 0.0000000000000000e+00  8.1213482881391258e+01 2.3491581623546068e+02 0.0000000000000000e+00  8.1170150759822917e+01 2.2231447594612590e+02 0.0000000000000000e+00  7.7468063564957077e+01 2.1090297131767389e+02 0.0000000000000000e+00  7.1493163771065298e+01 2.0128724371865761e+02 0.0000000000000000e+00  6.4012708594847595e+01 1.9378631818949273e+02 0.0000000000000000e+00  5.6075256525046150e+01 1.8790091441414276e+02 0.0000000000000000e+00  4.7767021834273045e+01 1.8308584500021561e+02 0.0000000000000000e+00  3.8848562317317175e+01 1.7848986428964631e+02 0.0000000000000000e+00  2.9221899895440302e+01 1.7730134955747187e+02 0.0000000000000000e+00  1.9248954001831784e+01 1.6550607139936639e+02 0.0000000000000000e+00  8.8241691286280162e+00 2.0926492389017645e+02 0.0000000000000000e+00  0.0000000000000000e+00 0.0000000000000000e+00 0.0000000000000000e+00  0.0000000000000000e+00 0.0000000000000000e+00 0.0000000000000000e+00  6.5477871982823439e+00 3.2334339117495830e+02 0.0000000000000000e+00  1.4740103177630255e+01 2.5544056902766013e+02 0.0000000000000000e+00  2.3629916611818295e+01 2.6996483306219636e+02 0.0000000000000000e+00  3.3423432893918097e+01 2.6593924622103924e+02 0.0000000000000000e+00  4.3626316789921390e+01 2.6375365927070590e+02 0.0000000000000000e+00  5.3221580929417648e+01 2.5855074613652096e+02 0.0000000000000000e+00  6.1204563134528605e+01 2.5155125702525129e+02 0.0000000000000000e+00  6.7018049241945079e+01 2.4296917702463182e+02 0.0000000000000000e+00  7.0079929934805293e+01 2.3353737933626519e+02 0.0000000000000000e+00  7.0373548703585385e+01 2.2394896818176943e+02 0.0000000000000000e+00  6.8005473601729008e+01 2.1503899536453855e+02 0.0000000000000000e+00  6.3639769997476321e+01 2.0727427504208859e+02 0.0000000000000000e+00  5.7781372470024252e+01 2.0082685844048720e+02 0.0000000000000000e+00  5.1002342830064165e+01 1.9552020911946005e+02 0.0000000000000000e+00  4.3522024700611780e+01 1.9126487404942759e+02 0.0000000000000000e+00  3.5412255712740830e+01 1.8726322854321918e+02 0.0000000000000000e+00  2.6718380529662966e+01 1.8669865321454128e+02 0.0000000000000000e+00  1.7709742185859586e+01 1.7476356540940930e+02 0.0000000000000000e+00  8.1934495658506652e+00 2.2092075605535612e+02 0.0000000000000000e+00  0.0000000000000000e+00 0.0000000000000000e+00 0.0000000000000000e+00  0.0000000000000000e+00 0.0000000000000000e+00 0.0000000000000000e+00  6.7065648965701694e+00 3.1406571093677621e+02 0.0000000000000000e+00  1.4781832964504677e+01 2.4748163361632237e+02 0.0000000000000000e+00  2.2991820075156525e+01 2.6105429555570328e+02 0.0000000000000000e+00  3.1539899382721664e+01 2.5673267653528808e+02 0.0000000000000000e+00  4.0005802206080595e+01 2.5476630794071900e+02 0.0000000000000000e+00  4.7801213867172265e+01 2.5059850484721440e+02 0.0000000000000000e+00  5.4315173424005657e+01 2.4525712153274947e+02 0.0000000000000000e+00  5.9081515008571095e+01 2.3882361090013836e+02 0.0000000000000000e+00  6.1744433492318336e+01 2.3179869162563995e+02 0.0000000000000000e+00  6.2228507456883513e+01 2.