<?xml version="1.0"?>
<VTKFile type="UnstructuredGrid"  version="0.1"  >
<UnstructuredGrid>
<Piece  NumberOfPoints="861" NumberOfCells="1600">
<Points>
<DataArray  type="Float64"  NumberOfComponents="3"  format="ascii">0 0 0  0.1 0 0  0.2 0 0  0.3 0 0  0.4 0 0  0.5 0 0  0.6 0 0  0.7 0 0  0.8 0 0  0.9 0 0  1 0 0  1.1 0 0  1.2 0 0  1.3 0 0  1.4 0 0  1.5 0 0  1.6 0 0  1.7 0 0  1.8 0 0  1.9 0 0  2 0 0  0 0.1 0  0.1 0.1 0  0.2 0.1 0  0.3 0.1 0  0.4 0.1 0  0.5 0.1 0  0.6 0.1 0  0.7 0.1 0  0.8 0.1 0  0.9 0.1 0  1 0.1 0  1.1 0.1 0  1.2 0.1 0  1.3 0.1 0  1.4 0.1 0  1.5 0.1 0  1.6 0.1 0  1.7 0.1 0  1.8 0.1 0  1.9 0.1 0  2 0.1 0  0 0.2 0  0.1 0.2 0  0.2 0.2 0  0.3 0.2 0  0.4 0.2 0  0.5 0.2 0  0.6 0.2 0  0.7 0.2 0  0.8 0.2 0  0.9 0.2 0  1 0.2 0  1.1 0.2 0  1.2 0.2 0  1.3 0.2 0  1.4 0.2 0  1.5 0.2 0  1.6 0.2 0  1.7 0.2 0  1.8 0.2 0  1.9 0.2 0  2 0.2 0  0 0.3 0  0.1 0.3 0  0.2 0.3 0  0.3 0.3 0  0.4 0.3 0  0.5 0.3 0  0.6 0.3 0  0.7 0.3 0  0.8 0.3 0  0.9 0.3 0  1 0.3 0  1.1 0.3 0  1.2 0.3 0  1.3 0.3 0  1.4 0.3 0  1.5 0.3 0  1.6 0.3 0  1.7 0.3 0  1.8 0.3 0  1.9 0.3 0  2 0.3 0  0 0.4 0  0.1 0.4 0  0.2 0.4 0  0.3 0.4 0  0.4 0.4 0  0.5 0.4 0  0.6 0.4 0  0.7 0.4 0  0.8 0.4 0  0.9 0.4 0  1 0.4 0  1.1 0.4 0  1.2 0.4 0  1.3 0.4 0  1.4 0.4 0  1.5 0.4 0  1.6 0.4 0  1.7 0.4 0  1.8 0.4 0  1.9 0.4 0  2 0.4 0  0 0.5 0  0.1 0.5 0  0.2 0.5 0  0.3 0.5 0  0.4 0.5 0  0.5 0.5 0  0.6 0.5 0  0.7 0.5 0  0.8 0.5 0  0.9 0.5 0  1 0.5 0  1.1 0.5 0  1.2 0.5 0  1.3 0.5 0  1.4 0.5 0  1.5 0.5 0  1.6 0.5 0  1.7 0.5 0  1.8 0.5 0  1.9 0.5 0  2 0.5 0  0 0.6 0  0.1 0.6 0  0.2 0.6 0  0.3 0.6 0  0.4 0.6 0  0.5 0.6 0  0.6 0.6 0  0.7 0.6 0  0.8 0.6 0  0.9 0.6 0  1 0.6 0  1.1 0.6 0  1.2 0.6 0  1.3 0.6 0  1.4 0.6 0  1.5 0.6 0  1.6 0.6 0  1.7 0.6 0  1.8 0.6 0  1.9 0.6 0  2 0.6 0  0 0.7 0  0.1 0.7 0  0.2 0.7 0  0.3 0.7 0  0.4 0.7 0  0.5 0.7 0  0.6 0.7 0  0.7 0.7 0  0.8 0.7 0  0.9 0.7 0  1 0.7 0  1.1 0.7 0  1.2 0.7 0  1.3 0.7 0  1.4 0.7 0  1.5 0.7 0  1.6 0.7 0  1.7 0.7 0  1.8 0.7 0  1.9 0.7 0  2 0.7 0  0 0.8 0  0.1 0.8 0  0.2 0.8 0  0.3 0.8 0  0.4 0.8 0  0.5 0.8 0  0.6 0.8 0  0.7 0.8 0  0.8 0.8 0  0.9 0.8 0  1 0.8 0  1.1 0.8 0  1.2 0.8 0  1.3 0.8 0  1.4 0.8 0  1.5 0.8 0  1.6 0.8 0  1.7 0.8 0  1.8 0.8 0  1.9 0.8 0  2 0.8 0  0 0.9 0  0.1 0.9 0  0.2 0.9 0  0.3 0.9 0  0.4 0.9 0  0.5 0.9 0  0.6 0.9 0  0.7 0.9 0  0.8 0.9 0  0.9 0.9 0  1 0.9 0  1.1 0.9 0  1.2 0.9 0  1.3 0.9 0  1.4 0.9 0  1.5 0.9 0  1.6 0.9 0  1.7 0.9 0  1.8 0.9 0  1.9 0.9 0  2 0.9 0  0 1 0  0.1 1 0  0.2 1 0  0.3 1 0  0.4 1 0  0.5 1 0  0.6 1 0  0.7 1 0  0.8 1 0  0.9 1 0  1 1 0  1.1 1 0  1.2 1 0  1.3 1 0  1.4 1 0  1.5 1 0  1.6 1 0  1.7 1 0  1.8 1 0  1.9 1 0  2 1 0  0 1.1 0  0.1 1.1 0  0.2 1.1 0  0.3 1.1 0  0.4 1.1 0  0.5 1.1 0  0.6 1.1 0  0.7 1.1 0  0.8 1.1 0  0.9 1.1 0  1 1.1 0  1.1 1.1 0  1.2 1.1 0  1.3 1.1 0  1.4 1.1 0  1.5 1.1 0  1.6 1.1 0  1.7 1.1 0  1.8 1.1 0  1.9 1.1 0  2 1.1 0  0 1.2 0  0.1 1.2 0  0.2 1.2 0  0.3 1.2 0  0.4 1.2 0  0.5 1.2 0  0.6 1.2 0  0.7 1.2 0  0.8 1.2 0  0.9 1.2 0  1 1.2 0  1.1 1.2 0  1.2 1.2 0  1.3 1.2 0  1.4 1.2 0  1.5 1.2 0  1.6 1.2 0  1.7 1.2 0  1.8 1.2 0  1.9 1.2 0  2 1.2 0  0 1.3 0  0.1 1.3 0  0.2 1.3 0  0.3 1.3 0  0.4 1.3 0  0.5 1.3 0  0.6 1.3 0  0.7 1.3 0  0.8 1.3 0  0.9 1.3 0  1 1.3 0  1.1 1.3 0  1.2 1.3 0  1.3 1.3 0  1.4 1.3 0  1.5 1.3 0  1.6 1.3 0  1.7 1.3 0  1.8 1.3 0  1.9 1.3 0  2 1.3 0  0 1.4 0  0.1 1.4 0  0.2 1.4 0  0.3 1.4 0  0.4 1.4 0  0.5 1.4 0  0.6 1.4 0  0.7 1.4 0  0.8 1.4 0  0.9 1.4 0  1 1.4 0  1.1 1.4 0  1.2 1.4 0  1.3 1.4 0  1.4 1.4 0  1.5 1.4 0  1.6 1.4 0  1.7 1.4 0  1.8 1.4 0  1.9 1.4 0  2 1.4 0  0 1.5 0  0.1 1.5 0  0.2 1.5 0  0.3 1.5 0  0.4 1.5 0  0.5 1.5 0  0.6 1.5 0  0.7 1.5 0  0.8 1.5 0  0.9 1.5 0  1 1.5 0  1.1 1.5 0  1.2 1.5 0  1.3 1.5 0  1.4 1.5 0  1.5 1.5 0  1.6 1.5 0  1.7 1.5 0  1.8 1.5 0  1.9 1.5 0  2 1.5 0  0 1.6 0  0.1 1.6 0  0.2 1.6 0  0.3 1.6 0  0.4 1.6 0  0.5 1.6 0  0.6 1.6 0  0.7 1.6 0  0.8 1.6 0  0.9 1.6 0  1 1.6 0  1.1 1.6 0  1.2 1.6 0  1.3 1.6 0  1.4 1.6 0  1.5 1.6 0  1.6 1.6 0  1.7 1.6 0  1.8 1.6 0  1.9 1.6 0  2 1.6 0  0 1.7 0  0.1 1.7 0  0.2 1.7 0  0.3 1.7 0  0.4 1.7 0  0.5 1.7 0  0.6 1.7 0  0.7 1.7 0  0.8 1.7 0  0.9 1.7 0  1 1.7 0  1.1 1.7 0  1.2 1.7 0  1.3 1.7 0  1.4 1.7 0  1.5 1.7 0  1.6 1.7 0  1.7 1.7 0  1.8 1.7 0  1.9 1.7 0  2 1.7 0  0 1.8 0  0.1 1.8 0  0.2 1.8 0  0.3 1.8 0  0.4 1.8 0  0.5 1.8 0  0.6 1.8 0  0.7 1.8 0  0.8 1.8 0  0.9 1.8 0  1 1.8 0  1.1 1.8 0  1.2 1.8 0  1.3 1.8 0  1.4 1.8 0  1.5 1.8 0  1.6 1.8 0  1.7 1.8 0  1.8 1.8 0  1.9 1.8 0  2 1.8 0  0 1.9 0  0.1 1.9 0  0.2 1.9 0  0.3 1.9 0  0.4 1.9 0  0.5 1.9 0  0.6 1.9 0  0.7 1.9 0  0.8 1.9 0  0.9 1.9 0  1 1.9 0  1.1 1.9 0  1.2 1.9 0  1.3 1.9 0  1.4 1.9 0  1.5 1.9 0  1.6 1.9 0  1.7 1.9 0  1.8 1.9 0  1.9 1.9 0  2 1.9 0  0 2 0  0.1 2 0  0.2 2 0  0.3 2 0  0.4 2 0  0.5 2 0  0.6 2 0  0.7 2 0  0.8 2 0  0.9 2 0  1 2 0  1.1 2 0  1.2 2 0  1.3 2 0  1.4 2 0  1.5 2 0  1.6 2 0  1.7 2 0  1.8 2 0  1.9 2 0  2 2 0  0 2.1 0  0.1 2.1 0  0.2 2.1 0  0.3 2.1 0  0.4 2.1 0  0.5 2.1 0  0.6 2.1 0  0.7 2.1 0  0.8 2.1 0  0.9 2.1 0  1 2.1 0  1.1 2.1 0  1.2 2.1 0  1.3 2.1 0  1.4 2.1 0  1.5 2.1 0  1.6 2.1 0  1.7 2.1 0  1.8 2.1 0  1.9 2.1 0  2 2.1 0  0 2.2 0  0.1 2.2 0  0.2 2.2 0  0.3 2.2 0  0.4 2.2 0  0.5 2.2 0  0.6 2.2 0  0.7 2.2 0  0.8 2.2 0  0.9 2.2 0  1 2.2 0  1.1 2.2 0  1.2 2.2 0  1.3 2.2 0  1.4 2.2 0  1.5 2.2 0  1.6 2.2 0  1.7 2.2 0  1.8 2.2 0  1.9 2.2 0  2 2.2 0  0 2.3 0  0.1 2.3 0  0.2 2.3 0  0.3 2.3 0  0.4 2.3 0  0.5 2.3 0  0.6 2.3 0  0.7 2.3 0  0.8 2.3 0  0.9 2.3 0  1 2.3 0  1.1 2.3 0  1.2 2.3 0  1.3 2.3 0  1.4 2.3 0  1.5 2.3 0  1.6 2.3 0  1.7 2.3 0  1.8 2.3 0  1.9 2.3 0  2 2.3 0  0 2.4 0  0.1 2.4 0  0.2 2.4 0  0.3 2.4 0  0.4 2.4 0  0.5 2.4 0  0.6 2.4 0  0.7 2.4 0  0.8 2.4 0  0.9 2.4 0  1 2.4 0  1.1 2.4 0  1.2 2.4 0  1.3 2.4 0  1.4 2.4 0  1.5 2.4 0  1.6 2.4 0  1.7 2.4 0  1.8 2.4 0  1.9 2.4 0  2 2.4 0  0 2.5 0  0.1 2.5 0  0.2 2.5 0  0.3 2.5 0  0.4 2.5 0  0.5 2.5 0  0.6 2.5 0  0.7 2.5 0  0.8 2.5 0  0.9 2.5 0  1 2.5 0  1.1 2.5 0  1.2 2.5 0  1.3 2.5 0  1.4 2.5 0  1.5 2.5 0  1.6 2.5 0  1.7 2.5 0  1.8 2.5 0  1.9 2.5 0  2 2.5 0  0 2.6 0  0.1 2.6 0  0.2 2.6 0  0.3 2.6 0  0.4 2.6 0  0.5 2.6 0  0.6 2.6 0  0.7 2.6 0  0.8 2.6 0  0.9 2.6 0  1 2.6 0  1.1 2.6 0  1.2 2.6 0  1.3 2.6 0  1.4 2.6 0  1.5 2.6 0  1.6 2.6 0  1.7 2.6 0  1.8 2.6 0  1.9 2.6 0  2 2.6 0  0 2.7 0  0.1 2.7 0  0.2 2.7 0  0.3 2.7 0  0.4 2.7 0  0.5 2.7 0  0.6 2.7 0  0.7 2.7 0  0.8 2.7 0  0.9 2.7 0  1 2.7 0  1.1 2.7 0  1.2 2.7 0  1.3 2.7 0  1.4 2.7 0  1.5 2.7 0  1.6 2.7 0  1.7 2.7 0  1.8 2.7 0  1.9 2.7 0  2 2.7 0  0 2.8 0  0.1 2.8 0  0.2 2.8 0  0.3 2.8 0  0.4 2.8 0  0.5 2.8 0  0.6 2.8 0  0.7 2.8 0  0.8 2.8 0  0.9 2.8 0  1 2.8 0  1.1 2.8 0  1.2 2.8 0  1.3 2.8 0  1.4 2.8 0  1.5 2.8 0  1.6 2.8 0  1.7 2.8 0  1.8 2.8 0  1.9 2.8 0  2 2.8 0  0 2.9 0  0.1 2.9 0  0.2 2.9 0  0.3 2.9 0  0.4 2.9 0  0.5 2.9 0  0.6 2.9 0  0.7 2.9 0  0.8 2.9 0  0.9 2.9 0  1 2.9 0  1.1 2.9 0  1.2 2.9 0  1.3 2.9 0  1.4 2.9 0  1.5 2.9 0  1.6 2.9 0  1.7 2.9 0  1.8 2.9 0  1.9 2.9 0  2 2.9 0  0 3 0  0.1 3 0  0.2 3 0  0.3 3 0  0.4 3 0  0.5 3 0  0.6 3 0  0.7 3 0  0.8 3 0  0.9 3 0  1 3 0  1.1 3 0  1.2 3 0  1.3 3 0  1.4 3 0  1.5 3 0  1.6 3 0  1.7 3 0  1.8 3 0  1.9 3 0  2 3 0  0 3.1 0  0.1 3.1 0  0.2 3.1 0  0.3 3.1 0  0.4 3.1 0  0.5 3.1 0  0.6 3.1 0  0.7 3.1 0  0.8 3.1 0  0.9 3.1 0  1 3.1 0  1.1 3.1 0  1.2 3.1 0  1.3 3.1 0  1.4 3.1 0  1.5 3.1 0  1.6 3.1 0  1.7 3.1 0  1.8 3.1 0  1.9 3.1 0  2 3.1 0  0 3.2 0  0.1 3.2 0  0.2 3.2 0  0.3 3.2 0  0.4 3.2 0  0.5 3.2 0  0.6 3.2 0  0.7 3.2 0  0.8 3.2 0  0.9 3.2 0  1 3.2 0  1.1 3.2 0  1.2 3.2 0  1.3 3.2 0  1.4 3.2 0  1.5 3.2 0  1.6 3.2 0  1.7 3.2 0  1.8 3.2 0  1.9 3.2 0  2 3.2 0  0 3.3 0  0.1 3.3 0  0.2 3.3 0  0.3 3.3 0  0.4 3.3 0  0.5 3.3 0  0.6 3.3 0  0.7 3.3 0  0.8 3.3 0  0.9 3.3 0  1 3.3 0  1.1 3.3 0  1.2 3.3 0  1.3 3.3 0  1.4 3.3 0  1.5 3.3 0  1.6 3.3 0  1.7 3.3 0  1.8 3.3 0  1.9 3.3 0  2 3.3 0  0 3.4 0  0.1 3.4 0  0.2 3.4 0  0.3 3.4 0  0.4 3.4 0  0.5 3.4 0  0.6 3.4 0  0.7 3.4 0  0.8 3.4 0  0.9 3.4 0  1 3.4 0  1.1 3.4 0  1.2 3.4 0  1.3 3.4 0  1.4 3.4 0  1.5 3.4 0  1.6 3.4 0  1.7 3.4 0  1.8 3.4 0  1.9 3.4 0  2 3.4 0  0 3.5 0  0.1 3.5 0  0.2 3.5 0  0.3 3.5 0  0.4 3.5 0  0.5 3.5 0  0.6 3.5 0  0.7 3.5 0  0.8 3.5 0  0.9 3.5 0  1 3.5 0  1.1 3.5 0  1.2 3.5 0  1.3 3.5 0  1.4 3.5 0  1.5 3.5 0  1.6 3.5 0  1.7 3.5 0  1.8 3.5 0  1.9 3.5 0  2 3.5 0  0 3.6 0  0.1 3.6 0  0.2 3.6 0  0.3 3.6 0  0.4 3.6 0  0.5 3.6 0  0.6 3.6 0  0.7 3.6 0  0.8 3.6 0  0.9 3.6 0  1 3.6 0  1.1 3.6 0  1.2 3.6 0  1.3 3.6 0  1.4 3.6 0  1.5 3.6 0  1.6 3.6 0  1.7 3.6 0  1.8 3.6 0  1.9 3.6 0  2 3.6 0  0 3.7 0  0.1 3.7 0  0.2 3.7 0  0.3 3.7 0  0.4 3.7 0  0.5 3.7 0  0.6 3.7 0  0.7 3.7 0  0.8 3.7 0  0.9 3.7 0  1 3.7 0  1.1 3.7 0  1.2 3.7 0  1.3 3.7 0  1.4 3.7 0  1.5 3.7 0  1.6 3.7 0  1.7 3.7 0  1.8 3.7 0  1.9 3.7 0  2 3.7 0  0 3.8 0  0.1 3.8 0  0.2 3.8 0  0.3 3.8 0  0.4 3.8 0  0.5 3.8 0  0.6 3.8 0  0.7 3.8 0  0.8 3.8 0  0.9 3.8 0  1 3.8 0  1.1 3.8 0  1.2 3.8 0  1.3 3.8 0  1.4 3.8 0  1.5 3.8 0  1.6 3.8 0  1.7 3.8 0  1.8 3.8 0  1.9 3.8 0  2 3.8 0  0 3.9 0  0.1 3.9 0  0.2 3.9 0  0.3 3.9 0  0.4 3.9 0  0.5 3.9 0  0.6 3.9 0  0.7 3.9 0  0.8 3.9 0  0.9 3.9 0  1 3.9 0  1.1 3.9 0  1.2 3.9 0  1.3 3.9 0  1.4 3.9 0  1.5 3.9 0  1.6 3.9 0  1.7 3.9 0  1.8 3.9 0  1.9 3.9 0  2 3.9 0  0 4 0  0.1 4 0  0.2 4 0  0.3 4 0  0.4 4 0  0.5 4 0  0.6 4 0  0.7 4 0  0.8 4 0  0.9 4 0  1 4 0  1.1 4 0  1.2 4 0  1.3 4 0  1.4 4 0  1.5 4 0  1.6 4 0  1.7 4 0  1.8 4 0  1.9 4 0  2 4 0  </DataArray>
</Points>
<Cells>
[...]
<PointData  Vectors="f_107-0"> 
<DataArray  type="Float64"  Name="f_107-0"  NumberOfComponents="3" format="ascii">0.0000000000000000e+00 0.0000000000000000e+00 0.0000000000000000e+00  0.0000000000000000e+00 0.0000000000000000e+00 0.0000000000000000e+00  0.0000000000000000e+00 0.0000000000000000e+00 0.0000000000000000e+00  0.0000000000000000e+00 0.0000000000000000e+00 0.0000000000000000e+00  0.0000000000000000e+00 0.0000000000000000e+00 0.0000000000000000e+00  0.0000000000000000e+00 0.0000000000000000e+00 0.0000000000000000e+00  0.0000000000000000e+00 0.0000000000000000e+00 0.0000000000000000e+00  0.0000000000000000e+00 0.0000000000000000e+00 0.0000000000000000e+00  0.0000000000000000e+00 0.0000000000000000e+00 0.0000000000000000e+00  0.0000000000000000e+00 0.0000000000000000e+00 0.0000000000000000e+00  0.0000000000000000e+00 0.0000000000000000e+00 0.0000000000000000e+00  0.0000000000000000e+00 0.0000000000000000e+00 0.0000000000000000e+00  0.0000000000000000e+00 0.0000000000000000e+00 0.0000000000000000e+00  0.0000000000000000e+00 0.0000000000000000e+00 0.0000000000000000e+00  0.0000000000000000e+00 0.0000000000000000e+00 0.0000000000000000e+00  0.0000000000000000e+00 0.0000000000000000e+00 0.0000000000000000e+00  0.0000000000000000e+00 0.0000000000000000e+00 0.0000000000000000e+00  0.0000000000000000e+00 0.0000000000000000e+00 0.0000000000000000e+00  0.0000000000000000e+00 0.0000000000000000e+00 0.0000000000000000e+00  0.0000000000000000e+00 0.0000000000000000e+00 0.0000000000000000e+00  0.0000000000000000e+00 0.0000000000000000e+00 0.0000000000000000e+00  0.0000000000000000e+00 0.0000000000000000e+00 0.0000000000000000e+00  1.6731007117785104e-02 5.3703682896371963e-01 0.0000000000000000e+00  1.3446334758481934e-02 4.9224546487253090e-01 0.0000000000000000e+00  1.3592769157721318e-02 5.1145746847433682e-01 0.0000000000000000e+00  1.5872671596556288e-02 5.2744006216999184e-01 0.0000000000000000e+00  1.7360184055069033e-02 5.4643692267849953e-01 0.0000000000000000e+00  1.7468037089092087e-02 5.6672091440802286e-01 0.0000000000000000e+00  1.5776813417081339e-02 5.8643098816580874e-01 0.0000000000000000e+00  1.2098937686013033e-02 6.0334934918671301e-01 0.0000000000000000e+00  6.7008526270286453e-03 6.1517460524904821e-01 0.0000000000000000e+00  2.4776852593520250e-04 6.2011185977341199e-01 0.0000000000000000e+00  -6.2434822807882250e-03 6.1733563207434838e-01 0.0000000000000000e+00  -1.1722548726078884e-02 6.0731901361897678e-01 0.0000000000000000e+00  -1.5454548004461707e-02 5.9169545572573423e-01 0.0000000000000000e+00  -1.7147639440325789e-02 5.7266296385536419e-01 0.0000000000000000e+00  -1.6906638083591087e-02 5.5290199839976661e-01 0.0000000000000000e+00  -1.4877135468875556e-02 5.3297916626266051e-01 0.0000000000000000e+00  -1.1888704979621944e-02 5.2197513274334306e-01 0.0000000000000000e+00  -5.3841954308772987e-03 4.8481058456612180e-01 0.0000000000000000e+00  -1.5932520273580228e-03 5.9569109747989890e-01 0.0000000000000000e+00  0.0000000000000000e+00 0.0000000000000000e+00 0.0000000000000000e+00  0.0000000000000000e+00 0.0000000000000000e+00 0.0000000000000000e+00  1.0995010647483665e-02 4.5021865368735536e-01 0.0000000000000000e+00  1.6416854044327030e-02 3.3786598136734564e-01 0.0000000000000000e+00  2.4022309552382048e-02 3.6249446234151406e-01 0.0000000000000000e+00  2.9990270965265197e-02 3.7240906626946474e-01 0.0000000000000000e+00  3.3497159492827770e-02 3.8823649186958997e-01 0.0000000000000000e+00  3.4123493807372847e-02 4.0537992003046402e-01 0.0000000000000000e+00  3.1129041784091725e-02 4.2236407458808078e-01 0.0000000000000000e+00  2.4011156823923165e-02 4.3702182473387280e-01 0.0000000000000000e+00  1.3292429766947269e-02 4.4692605024476328e-01 0.0000000000000000e+00  2.8113063197361519e-04 4.5027841183544598e-01 0.0000000000000000e+00  -1.2804911512785495e-02 4.4627403602510551e-01 0.0000000000000000e+00  -2.3657138571730379e-02 4.3570310940531576e-01 0.0000000000000000e+00  -3.0783451219058615e-02 4.2059462079666043e-01 0.0000000000000000e+00  -3.3758771949921842e-02 4.0333022618838049e-01 0.0000000000000000e+00  -3.2916942050347925e-02 3.8628453878999547e-01 0.0000000000000000e+00  -2.9079471128142863e-02 3.7006857664032050e-01 0.0000000000000000e+00  -2.2693896994211035e-02 3.6078984246889056e-01 0.0000000000000000e+00  -1.5930488082311199e-02 3.3404060117441803e-01 0.0000000000000000e+00  -6.3475706128061429e-03 4.1248138726444172e-01 0.0000000000000000e+00  0.0000000000000000e+00 0.0000000000000000e+00 0.0000000000000000e+00  0.0000000000000000e+00 0.0000000000000000e+00 0.0000000000000000e+00  1.2653911928377812e-02 4.4580263679387466e-01 0.0000000000000000e+00  2.5506697900322724e-02 3.6210027449792476e-01 0.0000000000000000e+00  3.7604635107060892e-02 3.9706475830294441e-01 0.0000000000000000e+00  4.6747850353412140e-02 4.0936579066439083e-01 0.0000000000000000e+00  5.3220557960703019e-02 4.3041182944773981e-01 0.0000000000000000e+00  5.5045452085395567e-02 4.5341850639321923e-01 0.0000000000000000e+00  5.1189563069789203e-02 4.7701977113895949e-01 0.0000000000000000e+00  4.0093929433566808e-02 4.9840541935154992e-01 0.0000000000000000e+00  2.2597729654086143e-02 5.1372151566673030e-01 0.0000000000000000e+00  5.4971269534235319e-04 5.1987012391310172e-01 0.0000000000000000e+00  -2.1688963472819130e-02 5.1478487856840494e-01 0.0000000000000000e+00  -3.9599126195652048e-02 4.9982886906720453e-01 0.0000000000000000e+00  -5.0704993695240869e-02 4.7859813341738427e-01 0.0000000000000000e+00  -5.4697445485186028e-02 4.5489759049106121e-01 0.0000000000000000e+00  -5.2604663560591298e-02 4.3201759809316764e-01 0.0000000000000000e+00  -4.5911364417421802e-02 4.1088206649139908e-01 0.0000000000000000e+00  -3.6127340790879488e-02 3.9816875694036696e-01 0.0000000000000000e+00  -2.4197244218010901e-02 3.6729669767949230e-01 0.0000000000000000e+00  -1.1402329860245619e-02 4.5178591808068941e-01 0.0000000000000000e+00  0.0000000000000000e+00 0.0000000000000000e+00 0.0000000000000000e+00  0.0000000000000000e+00 0.0000000000000000e+00 0.0000000000000000e+00  1.6586172230241100e-02 4.2590863581960015e-01 0.0000000000000000e+00  3.5067931683904277e-02 3.4183375090914114e-01 0.0000000000000000e+00  5.1945273340059793e-02 3.7269529634725335e-01 0.0000000000000000e+00  6.6133414852049280e-02 3.8643287203627552e-01 0.0000000000000000e+00  7.7309996208876922e-02 4.1088959627294458e-01 0.0000000000000000e+00  8.1556518443161696e-02 4.3906487075866790e-01 0.0000000000000000e+00  7.8404787058165601e-02 4.7016067926057648e-01 0.0000000000000000e+00  6.2714212976834730e-02 5.0114490817596913e-01 0.0000000000000000e+00  3.6368997360844341e-02 5.2415851380288636e-01 0.0000000000000000e+00  8.2600528984116907e-04 5.3370763944934285e-01 0.0000000000000000e+00  -3.5004706453451023e-02 5.2522898930576578e-01 0.0000000000000000e+00  -6.2408921382824681e-02 5.0235595728496507e-01 0.0000000000000000e+00  -7.7727102609748980e-02 4.7195326759264072e-01 0.0000000000000000e+00  -8.1631704269021457e-02 4.4019972750081970e-01 0.0000000000000000e+00  -7.6733399750170031e-02 4.1132034455636901e-01 0.0000000000000000e+00  -6.5829464473458985e-02 3.8634993613004553e-01 0.0000000000000000e+00  -5.1079745122287593e-02 3.7090632254280392e-01 0.0000000000000000e+00  -3.4515746757139969e-02 3.4078526808292853e-01 0.0000000000000000e+00  -1.5945123912792569e-02 4.1714370215243368e-01 0.0000000000000000e+00  0.0000000000000000e+00 0.0000000000000000e+00 0.0000000000000000e+00  0.0000000000000000e+00 0.0000000000000000e+00 0.0000000000000000e+00  2.1365038491805054e-02 4.0080459095056387e-01 0.0000000000000000e+00  4.5693997037568240e-02 3.2309327414790329e-01 0.0000000000000000e+00  6.8840632680867944e-02 3.5638238963895785e-01 0.0000000000000000e+00  8.9138950042247089e-02 3.7438422915374758e-01 0.0000000000000000e+00  1.0774660331713004e-01 4.0507831860884957e-01 0.0000000000000000e+00  1.1660281761247511e-01 4.4432227300550531e-01 0.0000000000000000e+00  1.1786490888741126e-01 4.8910498417702747e-01 0.0000000000000000e+00  9.6103872143242577e-02 5.3468888815711535e-01 0.0000000000000000e+00  5.9526659580800050e-02 5.6772741013811123e-01 0.0000000000000000e+00  1.5663359281684942e-03 5.8453597286897108e-01 0.0000000000000000e+00  -5.7043433286994322e-02 5.7003461957589741e-01 0.0000000000000000e+00  -9.7528850779070059e-02 5.3227869012549622e-01 0.0000000000000000e+00  -1.1615664280111630e-01 4.8618922557739319e-01 0.0000000000000000e+00  -1.1741699119014871e-01 4.4215872980732535e-01 0.0000000000000000e+00  -1.0688857044542766e-01 4.0478420718496189e-01 0.0000000000000000e+00  -8.9476693289560399e-02 3.7463927618960252e-01 0.0000000000000000e+00  -6.8280890390780891e-02 3.5590013732201387e-01 0.0000000000000000e+00  -4.5495690277178986e-02 3.2541691664236772e-01 0.0000000000000000e+00  -2.1043369185616039e-02 3.9580075609575477e-01 0.0000000000000000e+00  0.0000000000000000e+00 0.0000000000000000e+00 0.0000000000000000e+00  0.0000000000000000e+00 0.0000000000000000e+00 0.0000000000000000e+00  2.6490523046871491e-02 3.6867679352794425e-01 0.0000000000000000e+00  5.7266861565777712e-02 2.9715724442659530e-01 0.0000000000000000e+00  8.7637204664720386e-02 3.2976877614429062e-01 0.0000000000000000e+00  1.1573695222059451e-01 3.4938296708707750e-01 0.0000000000000000e+00  1.4666076992508797e-01 3.8372469862043396e-01 0.0000000000000000e+00  1.6057463035655931e-01 4.2714299233859621e-01 0.0000000000000000e+00  1.7610837582213834e-01 4.7718541319043278e-01 0.0000000000000000e+00  1.4819009425728252e-01 5.4797511757978601e-01 0.0000000000000000e+00  1.0583785365422130e-01 6.1644620366641778e-01 0.0000000000000000e+00  6.0436007694940905e-04 6.6509930034477183e-01 0.0000000000000000e+00  -9.8112529510461829e-02 6.3257538541602831e-01 0.0000000000000000e+00  -1.5394982694470896e-01 5.6366723064137203e-01 0.0000000000000000e+00  -1.7243244246442782e-01 4.9284324335961388e-01 0.0000000000000000e+00  -1.6475768822528900e-01 4.3156726631836895e-01 0.0000000000000000e+00  -1.4392811569633948e-01 3.8467469893477862e-01 0.0000000000000000e+00  -1.1678861950327839e-01 3.4975801680038393e-01 0.0000000000000000e+00  -8.7214253558832638e-02 3.2847256206518388e-01 0.0000000000000000e+00  -5.7330622279919009e-02 2.9903480703096219e-01 0.0000000000000000e+00  -2.6313509799113399e-02 3.6126795927346722e-01 0.0000000000000000e+00  0.0000000000000000e+00 0.0000000000000000e+00 0.0000000000000000e+00  0.0000000000000000e+00 0.0000000000000000e+00 0.0000000000000000e+00  3.1543848672529955e-02 3.2928624027492415e-01 0.0000000000000000e+00  6.8868742133910865e-02 2.6477886159561315e-01 0.0000000000000000e+00  1.0674464199221301e-01 2.9563418053441537e-01 0.0000000000000000e+00  1.4466185988080513e-01 3.1639014111550678e-01 0.0000000000000000e+00  1.9038451791886171e-01 3.5499696759457416e-01 0.0000000000000000e+00  2.1037723938004899e-01 4.1239637603583590e-01 0.0000000000000000e+00  2.7662055128688706e-01 5.1278778150691751e-01 0.0000000000000000e+00  2.2701282613861570e-01 6.6673866316548669e-01 0.0000000000000000e+00  2.0158262635961924e-01 7.5842205048495670e-01 0.0000000000000000e+00  -6.2661875557340103e-03 8.2046792444631733e-01 0.0000000000000000e+00  -1.7582618743618714e-01 7.2433436965594911e-01 0.0000000000000000e+00  -2.5311130416837602e-01 6.0401072330200345e-01 0.0000000000000000e+00  -2.5252225458514815e-01 4.8891458926483977e-01 0.0000000000000000e+00  -2.2581057283263611e-01 4.0895969585164610e-01 0.0000000000000000e+00  -1.8698790581624350e-01 3.5341603589317538e-01 0.0000000000000000e+00  -1.4641152061074533e-01 3.1611146720791250e-01 0.0000000000000000e+00  -1.0671998278114039e-01 2.9421967782070174e-01 0.0000000000000000e+00  -6.9062881632766387e-02 2.6738681997312663e-01 0.0000000000000000e+00  -3.1478602902432061e-02 3.2110741890316080e-01 0.0000000000000000e+00  0.0000000000000000e+00 0.0000000000000000e+00 0.0000000000000000e+00  0.0000000000000000e+00 0.0000000000000000e+00 0.0000000000000000e+00  3.5949175621958478e-02 2.8296884039018028e-01 0.0000000000000000e+00  7.9178109301414182e-02 2.2574061503919310e-01 0.0000000000000000e+00  1.2423681735484211e-01 2.5210548634439028e-01 0.0000000000000000e+00  1.7371714150089640e-01 2.6923418873957206e-01 0.0000000000000000e+00  2.3490536734220588e-01 3.0198224977703764e-01 0.0000000000000000e+00  2.8077835299384574e-01 3.5327701412767043e-01 0.0000000000000000e+00  4.3050494639306425e-01 4.3189931793138114e-01 0.0000000000000000e+00  2.7343152753433259e-01 4.7827124943279054e-01 0.0000000000000000e+00  5.0990358950168801e-01 5.7551032508464350e-01 0.0000000000000000e+00  -2.3061188656309701e-02 1.0697435089458653e+00 0.0000000000000000e+00  -4.0429133725914884e-01 9.0921331067383182e-01 0.0000000000000000e+00  -4.0175749155337348e-01 6.0677640236399988e-01 0.0000000000000000e+00  -3.6755916901640062e-01 4.5816288776342801e-01 0.0000000000000000e+00  -2.9625911712357633e-01 3.5919697212208779e-01 0.0000000000000000e+00  -2.3210917435124698e-01 3.0341799368656236e-01 0.0000000000000000e+00  -1.7488525022031659e-01 2.6922123854017599e-01 0.0000000000000000e+00  -1.2447658772513188e-01 2.5039857499684104e-01 0.0000000000000000e+00  -7.9382263280346504e-02 2.2859415210656495e-01 0.0000000000000000e+00  -3.5939183052450495e-02 2.7358454420980471e-01 0.0000000000000000e+00  0.0000000000000000e+00 0.0000000000000000e+00 0.0000000000000000e+00  0.0000000000000000e+00 0.0000000000000000e+00 0.0000000000000000e+00  3.9014813392047751e-02 2.3103121964567225e-01 0.0000000000000000e+00  8.6430523924228897e-02 1.8125241835432246e-01 0.0000000000000000e+00  1.3687172244788195e-01 2.0065975193298644e-01 0.0000000000000000e+00  1.9546471834194989e-01 2.1044950909973226e-01 0.0000000000000000e+00  2.6719875419148476e-01 2.3355028459991437e-01 0.0000000000000000e+00  3.4896055615149324e-01 2.7942623746857687e-01 0.0000000000000000e+00  5.2211088368656500e-01 3.7511636619984684e-01 0.0000000000000000e+00  3.7067523977387629e-01 6.8344169571203339e-01 0.0000000000000000e+00  1.6310991582102397e+00 1.8046565083835431e+00 0.0000000000000000e+00  -6.6002950002095040e-01 2.7985158319344419e+00 0.0000000000000000e+00  -6.5021044642516068e-01 8.2393851718378419e-01 0.0000000000000000e+00  -7.0420209356820596e-01 5.7799802132863543e-01 0.0000000000000000e+00  -4.8782834916631007e-01 3.4950936021713996e-01 0.0000000000000000e+00  -3.6490169448617849e-01 2.7184534238416025e-01 0.0000000000000000e+00  -2.6923220906519524e-01 2.3105894268110164e-01 0.0000000000000000e+00  -1.9645495653450837e-01 2.0939431693390834e-01 0.0000000000000000e+00  -1.3725808469601558e-01 1.9846170980022465e-01 0.0000000000000000e+00  -8.6575699234062553e-02 1.8426057686879241e-01 0.0000000000000000e+00  -3.9016988366372407e-02 2.2088975031321997e-01 0.0000000000000000e+00  0.0000000000000000e+00 0.0000000000000000e+00 0.0000000000000000e+00  0.0000000000000000e+00 0.0000000000000000e+00 0.0000000000000000e+00  4.0177399637159994e-02 1.7573024749103952e-01 0.0000000000000000e+00  8.9242000805940205e-02 1.3350402796040331e-01 0.0000000000000000e+00  1.4199430297843565e-01 1.4380652523709933e-01 0.0000000000000000e+00  2.0471550921465367e-01 1.4190643561580613e-01 0.0000000000000000e+00  2.8383480299600550e-01 1.4334657524428929e-01 0.0000000000000000e+00  3.9762574131227696e-01 1.4245344448666866e-01 0.0000000000000000e+00  5.8422323507761165e-01 1.3578834825853348e-01 0.0000000000000000e+00  8.6498199890029581e-01 1.1913475107399973e-01 0.0000000000000000e+00  2.6249903764279185e+00 -5.1773545232729434e-01 0.0000000000000000e+00  8.4633050846251594e-05 1.4241208511210726e-01 0.0000000000000000e+00  -2.6248208466026077e+00 8.0249089814597308e-01 0.0000000000000000e+00  -8.6481206915261033e-01 1.6541956388323723e-01 0.0000000000000000e+00  -5.8405381191071237e-01 1.4846185570723180e-01 0.0000000000000000e+00  -3.9745954750746920e-01 1.4138055154908838e-01 0.0000000000000000e+00  -2.8367670594269923e-01 1.4019561296397676e-01 0.0000000000000000e+00  -2.0457298540377489e-01 1.4056679611503115e-01 0.0000000000000000e+00  -1.4187602079882497e-01 1.4138935546351716e-01 0.0000000000000000e+00  -8.9158692286500404e-02 1.3654723593447959e-01 0.0000000000000000e+00  -4.0135682105261798e-02 1.6530573580243174e-01 0.0000000000000000e+00  0.0000000000000000e+00 0.0000000000000000e+00 0.0000000000000000e+00  0.0000000000000000e+00 0.0000000000000000e+00 0.0000000000000000e+00  3.9179195825263025e-02 1.2003684283560966e-01 0.0000000000000000e+00  8.6909375057335217e-02 8.5703769893500120e-02 0.0000000000000000e+00  1.3772680479289309e-01 8.6673103435632393e-02 0.0000000000000000e+00  1.9701510365770378e-01 7.3045116345999972e-02 0.0000000000000000e+00  2.6983334529088437e-01 5.2479812386559424e-02 0.0000000000000000e+00  3.6549223482109205e-01 1.2013439161784625e-02 0.0000000000000000e+00  4.8836061643650058e-01 -6.5210246425348645e-02 0.0000000000000000e+00  7.0463652258511533e-01 -2.9337693453819147e-01 0.0000000000000000e+00  6.5051913323808164e-01 -5.3910573495818448e-01 0.0000000000000000e+00  6.6019848320067953e-01 -2.5136114065837183e+00 0.0000000000000000e+00  -1.6310689519056669e+00 -1.5198251429814187e+00 0.0000000000000000e+00  -3.7076883462750332e-01 -3.9882195404778337e-01 0.0000000000000000e+00  -5.2230154294670217e-01 -9.0815834717261637e-02 0.0000000000000000e+00  -3.4921377749967925e-01 4.4404036422734548e-03 0.0000000000000000e+00  -2.6747640336715406e-01 5.0006579404981932e-02 0.0000000000000000e+00  -1.9573056514448867e-01 7.2024441853903859e-02 0.0000000000000000e+00  -1.3709407388976447e-01 8.4524612795919579e-02 0.0000000000000000e+00  -8.6589001746628952e-02 8.8791135270357618e-02 0.0000000000000000e+00  -3.9089154725415715e-02 1.0997107887676048e-01 0.0000000000000000e+00  0.0000000000000000e+00 0.0000000000000000e+00 0.0000000000000000e+00  0.0000000000000000e+00 0.0000000000000000e+00 0.0000000000000000e+00  3.6238653682293800e-02 6.7017498580209930e-02 0.0000000000000000e+00  7.9998195134471387e-02 4.1130862426121045e-02 0.0000000000000000e+00  1.2534040880434597e-01 3.4544222683305779e-02 0.0000000000000000e+00  1.7591364107439847e-01 1.3095046276413844e-02 0.0000000000000000e+00  2.3320516839847569e-01 -1.9928068902465054e-02 0.0000000000000000e+00  2.9732190114941348e-01 -7.5313648850742612e-02 0.0000000000000000e+00  3.6849395293064047e-01 -1.7377370054885499e-01 0.0000000000000000e+00  4.0248435744096067e-01 -3.2201370380449379e-01 0.0000000000000000e+00  4.0475307124611798e-01 -6.2420619753557860e-01 0.0000000000000000e+00  2.3228848965227537e-02 -7.8465382621918645e-01 0.0000000000000000e+00  -5.1002792404136765e-01 -2.9050511760584008e-01 0.0000000000000000e+00  -2.7381579604254791e-01 -1.9350937909396751e-01 0.0000000000000000e+00  -4.3109095604829301e-01 -1.4750387212802818e-01 0.0000000000000000e+00  -2.8148950481360113e-01 -6.9370206635018250e-02 0.0000000000000000e+00  -2.3565529381420697e-01 -1.8439397749214447e-02 0.0000000000000000e+00  -1.7442233955445516e-01 1.3179094453989104e-02 0.0000000000000000e+00  -1.2482258028355328e-01 3.2973468518466151e-02 0.0000000000000000e+00  -7.9592560738393242e-02 4.4183861666275387e-02 0.0000000000000000e+00  -3.6145329725951594e-02 5.7836129016820878e-02 0.0000000000000000e+00  0.0000000000000000e+00 0.0000000000000000e+00 0.0000000000000000e+00  0.0000000000000000e+00 0.0000000000000000e+00 0.0000000000000000e+00  3.1944504480926492e-02 1.9128120005050656e-02 0.0000000000000000e+00  7.0026024787666105e-02 2.0939206660640147e-03 0.0000000000000000e+00  1.0806216915623820e-01 -9.4317807827698635e-03 0.0000000000000000e+00  1.4800600326263930e-01 -3.3830786074013332e-02 0.0000000000000000e+00  1.8867987411167747e-01 -6.9832736209230473e-02 0.0000000000000000e+00  2.2744094221881614e-01 -1.2485646195834584e-01 0.0000000000000000e+00  2.5393990308121600e-01 -2.0419303029952038e-01 0.0000000000000000e+00  2.5418819273453719e-01 -3.1882836066418407e-01 0.0000000000000000e+00  1.76470120