<?xml version="1.0"?>
<VTKFile type="UnstructuredGrid"  version="0.1"  >
<UnstructuredGrid>
<Piece  NumberOfPoints="861" NumberOfCells="1600">
<Points>
<DataArray  type="Float64"  NumberOfComponents="3"  format="ascii">0 0 0  0.1 0 0  0.2 0 0  0.3 0 0  0.4 0 0  0.5 0 0  0.6 0 0  0.7 0 0  0.8 0 0  0.9 0 0  1 0 0  1.1 0 0  1.2 0 0  1.3 0 0  1.4 0 0  1.5 0 0  1.6 0 0  1.7 0 0  1.8 0 0  1.9 0 0  2 0 0  0 0.1 0  0.1 0.1 0  0.2 0.1 0  0.3 0.1 0  0.4 0.1 0  0.5 0.1 0  0.6 0.1 0  0.7 0.1 0  0.8 0.1 0  0.9 0.1 0  1 0.1 0  1.1 0.1 0  1.2 0.1 0  1.3 0.1 0  1.4 0.1 0  1.5 0.1 0  1.6 0.1 0  1.7 0.1 0  1.8 0.1 0  1.9 0.1 0  2 0.1 0  0 0.2 0  0.1 0.2 0  0.2 0.2 0  0.3 0.2 0  0.4 0.2 0  0.5 0.2 0  0.6 0.2 0  0.7 0.2 0  0.8 0.2 0  0.9 0.2 0  1 0.2 0  1.1 0.2 0  1.2 0.2 0  1.3 0.2 0  1.4 0.2 0  1.5 0.2 0  1.6 0.2 0  1.7 0.2 0  1.8 0.2 0  1.9 0.2 0  2 0.2 0  0 0.3 0  0.1 0.3 0  0.2 0.3 0  0.3 0.3 0  0.4 0.3 0  0.5 0.3 0  0.6 0.3 0  0.7 0.3 0  0.8 0.3 0  0.9 0.3 0  1 0.3 0  1.1 0.3 0  1.2 0.3 0  1.3 0.3 0  1.4 0.3 0  1.5 0.3 0  1.6 0.3 0  1.7 0.3 0  1.8 0.3 0  1.9 0.3 0  2 0.3 0  0 0.4 0  0.1 0.4 0  0.2 0.4 0  0.3 0.4 0  0.4 0.4 0  0.5 0.4 0  0.6 0.4 0  0.7 0.4 0  0.8 0.4 0  0.9 0.4 0  1 0.4 0  1.1 0.4 0  1.2 0.4 0  1.3 0.4 0  1.4 0.4 0  1.5 0.4 0  1.6 0.4 0  1.7 0.4 0  1.8 0.4 0  1.9 0.4 0  2 0.4 0  0 0.5 0  0.1 0.5 0  0.2 0.5 0  0.3 0.5 0  0.4 0.5 0  0.5 0.5 0  0.6 0.5 0  0.7 0.5 0  0.8 0.5 0  0.9 0.5 0  1 0.5 0  1.1 0.5 0  1.2 0.5 0  1.3 0.5 0  1.4 0.5 0  1.5 0.5 0  1.6 0.5 0  1.7 0.5 0  1.8 0.5 0  1.9 0.5 0  2 0.5 0  0 0.6 0  0.1 0.6 0  0.2 0.6 0  0.3 0.6 0  0.4 0.6 0  0.5 0.6 0  0.6 0.6 0  0.7 0.6 0  0.8 0.6 0  0.9 0.6 0  1 0.6 0  1.1 0.6 0  1.2 0.6 0  1.3 0.6 0  1.4 0.6 0  1.5 0.6 0  1.6 0.6 0  1.7 0.6 0  1.8 0.6 0  1.9 0.6 0  2 0.6 0  0 0.7 0  0.1 0.7 0  0.2 0.7 0  0.3 0.7 0  0.4 0.7 0  0.5 0.7 0  0.6 0.7 0  0.7 0.7 0  0.8 0.7 0  0.9 0.7 0  1 0.7 0  1.1 0.7 0  1.2 0.7 0  1.3 0.7 0  1.4 0.7 0  1.5 0.7 0  1.6 0.7 0  1.7 0.7 0  1.8 0.7 0  1.9 0.7 0  2 0.7 0  0 0.8 0  0.1 0.8 0  0.2 0.8 0  0.3 0.8 0  0.4 0.8 0  0.5 0.8 0  0.6 0.8 0  0.7 0.8 0  0.8 0.8 0  0.9 0.8 0  1 0.8 0  1.1 0.8 0  1.2 0.8 0  1.3 0.8 0  1.4 0.8 0  1.5 0.8 0  1.6 0.8 0  1.7 0.8 0  1.8 0.8 0  1.9 0.8 0  2 0.8 0  0 0.9 0  0.1 0.9 0  0.2 0.9 0  0.3 0.9 0  0.4 0.9 0  0.5 0.9 0  0.6 0.9 0  0.7 0.9 0  0.8 0.9 0  0.9 0.9 0  1 0.9 0  1.1 0.9 0  1.2 0.9 0  1.3 0.9 0  1.4 0.9 0  1.5 0.9 0  1.6 0.9 0  1.7 0.9 0  1.8 0.9 0  1.9 0.9 0  2 0.9 0  0 1 0  0.1 1 0  0.2 1 0  0.3 1 0  0.4 1 0  0.5 1 0  0.6 1 0  0.7 1 0  0.8 1 0  0.9 1 0  1 1 0  1.1 1 0  1.2 1 0  1.3 1 0  1.4 1 0  1.5 1 0  1.6 1 0  1.7 1 0  1.8 1 0  1.9 1 0  2 1 0  0 1.1 0  0.1 1.1 0  0.2 1.1 0  0.3 1.1 0  0.4 1.1 0  0.5 1.1 0  0.6 1.1 0  0.7 1.1 0  0.8 1.1 0  0.9 1.1 0  1 1.1 0  1.1 1.1 0  1.2 1.1 0  1.3 1.1 0  1.4 1.1 0  1.5 1.1 0  1.6 1.1 0  1.7 1.1 0  1.8 1.1 0  1.9 1.1 0  2 1.1 0  0 1.2 0  0.1 1.2 0  0.2 1.2 0  0.3 1.2 0  0.4 1.2 0  0.5 1.2 0  0.6 1.2 0  0.7 1.2 0  0.8 1.2 0  0.9 1.2 0  1 1.2 0  1.1 1.2 0  1.2 1.2 0  1.3 1.2 0  1.4 1.2 0  1.5 1.2 0  1.6 1.2 0  1.7 1.2 0  1.8 1.2 0  1.9 1.2 0  2 1.2 0  0 1.3 0  0.1 1.3 0  0.2 1.3 0  0.3 1.3 0  0.4 1.3 0  0.5 1.3 0  0.6 1.3 0  0.7 1.3 0  0.8 1.3 0  0.9 1.3 0  1 1.3 0  1.1 1.3 0  1.2 1.3 0  1.3 1.3 0  1.4 1.3 0  1.5 1.3 0  1.6 1.3 0  1.7 1.3 0  1.8 1.3 0  1.9 1.3 0  2 1.3 0  0 1.4 0  0.1 1.4 0  0.2 1.4 0  0.3 1.4 0  0.4 1.4 0  0.5 1.4 0  0.6 1.4 0  0.7 1.4 0  0.8 1.4 0  0.9 1.4 0  1 1.4 0  1.1 1.4 0  1.2 1.4 0  1.3 1.4 0  1.4 1.4 0  1.5 1.4 0  1.6 1.4 0  1.7 1.4 0  1.8 1.4 0  1.9 1.4 0  2 1.4 0  0 1.5 0  0.1 1.5 0  0.2 1.5 0  0.3 1.5 0  0.4 1.5 0  0.5 1.5 0  0.6 1.5 0  0.7 1.5 0  0.8 1.5 0  0.9 1.5 0  1 1.5 0  1.1 1.5 0  1.2 1.5 0  1.3 1.5 0  1.4 1.5 0  1.5 1.5 0  1.6 1.5 0  1.7 1.5 0  1.8 1.5 0  1.9 1.5 0  2 1.5 0  0 1.6 0  0.1 1.6 0  0.2 1.6 0  0.3 1.6 0  0.4 1.6 0  0.5 1.6 0  0.6 1.6 0  0.7 1.6 0  0.8 1.6 0  0.9 1.6 0  1 1.6 0  1.1 1.6 0  1.2 1.6 0  1.3 1.6 0  1.4 1.6 0  1.5 1.6 0  1.6 1.6 0  1.7 1.6 0  1.8 1.6 0  1.9 1.6 0  2 1.6 0  0 1.7 0  0.1 1.7 0  0.2 1.7 0  0.3 1.7 0  0.4 1.7 0  0.5 1.7 0  0.6 1.7 0  0.7 1.7 0  0.8 1.7 0  0.9 1.7 0  1 1.7 0  1.1 1.7 0  1.2 1.7 0  1.3 1.7 0  1.4 1.7 0  1.5 1.7 0  1.6 1.7 0  1.7 1.7 0  1.8 1.7 0  1.9 1.7 0  2 1.7 0  0 1.8 0  0.1 1.8 0  0.2 1.8 0  0.3 1.8 0  0.4 1.8 0  0.5 1.8 0  0.6 1.8 0  0.7 1.8 0  0.8 1.8 0  0.9 1.8 0  1 1.8 0  1.1 1.8 0  1.2 1.8 0  1.3 1.8 0  1.4 1.8 0  1.5 1.8 0  1.6 1.8 0  1.7 1.8 0  1.8 1.8 0  1.9 1.8 0  2 1.8 0  0 1.9 0  0.1 1.9 0  0.2 1.9 0  0.3 1.9 0  0.4 1.9 0  0.5 1.9 0  0.6 1.9 0  0.7 1.9 0  0.8 1.9 0  0.9 1.9 0  1 1.9 0  1.1 1.9 0  1.2 1.9 0  1.3 1.9 0  1.4 1.9 0  1.5 1.9 0  1.6 1.9 0  1.7 1.9 0  1.8 1.9 0  1.9 1.9 0  2 1.9 0  0 2 0  0.1 2 0  0.2 2 0  0.3 2 0  0.4 2 0  0.5 2 0  0.6 2 0  0.7 2 0  0.8 2 0  0.9 2 0  1 2 0  1.1 2 0  1.2 2 0  1.3 2 0  1.4 2 0  1.5 2 0  1.6 2 0  1.7 2 0  1.8 2 0  1.9 2 0  2 2 0  0 2.1 0  0.1 2.1 0  0.2 2.1 0  0.3 2.1 0  0.4 2.1 0  0.5 2.1 0  0.6 2.1 0  0.7 2.1 0  0.8 2.1 0  0.9 2.1 0  1 2.1 0  1.1 2.1 0  1.2 2.1 0  1.3 2.1 0  1.4 2.1 0  1.5 2.1 0  1.6 2.1 0  1.7 2.1 0  1.8 2.1 0  1.9 2.1 0  2 2.1 0  0 2.2 0  0.1 2.2 0  0.2 2.2 0  0.3 2.2 0  0.4 2.2 0  0.5 2.2 0  0.6 2.2 0  0.7 2.2 0  0.8 2.2 0  0.9 2.2 0  1 2.2 0  1.1 2.2 0  1.2 2.2 0  1.3 2.2 0  1.4 2.2 0  1.5 2.2 0  1.6 2.2 0  1.7 2.2 0  1.8 2.2 0  1.9 2.2 0  2 2.2 0  0 2.3 0  0.1 2.3 0  0.2 2.3 0  0.3 2.3 0  0.4 2.3 0  0.5 2.3 0  0.6 2.3 0  0.7 2.3 0  0.8 2.3 0  0.9 2.3 0  1 2.3 0  1.1 2.3 0  1.2 2.3 0  1.3 2.3 0  1.4 2.3 0  1.5 2.3 0  1.6 2.3 0  1.7 2.3 0  1.8 2.3 0  1.9 2.3 0  2 2.3 0  0 2.4 0  0.1 2.4 0  0.2 2.4 0  0.3 2.4 0  0.4 2.4 0  0.5 2.4 0  0.6 2.4 0  0.7 2.4 0  0.8 2.4 0  0.9 2.4 0  1 2.4 0  1.1 2.4 0  1.2 2.4 0  1.3 2.4 0  1.4 2.4 0  1.5 2.4 0  1.6 2.4 0  1.7 2.4 0  1.8 2.4 0  1.9 2.4 0  2 2.4 0  0 2.5 0  0.1 2.5 0  0.2 2.5 0  0.3 2.5 0  0.4 2.5 0  0.5 2.5 0  0.6 2.5 0  0.7 2.5 0  0.8 2.5 0  0.9 2.5 0  1 2.5 0  1.1 2.5 0  1.2 2.5 0  1.3 2.5 0  1.4 2.5 0  1.5 2.5 0  1.6 2.5 0  1.7 2.5 0  1.8 2.5 0  1.9 2.5 0  2 2.5 0  0 2.6 0  0.1 2.6 0  0.2 2.6 0  0.3 2.6 0  0.4 2.6 0  0.5 2.6 0  0.6 2.6 0  0.7 2.6 0  0.8 2.6 0  0.9 2.6 0  1 2.6 0  1.1 2.6 0  1.2 2.6 0  1.3 2.6 0  1.4 2.6 0  1.5 2.6 0  1.6 2.6 0  1.7 2.6 0  1.8 2.6 0  1.9 2.6 0  2 2.6 0  0 2.7 0  0.1 2.7 0  0.2 2.7 0  0.3 2.7 0  0.4 2.7 0  0.5 2.7 0  0.6 2.7 0  0.7 2.7 0  0.8 2.7 0  0.9 2.7 0  1 2.7 0  1.1 2.7 0  1.2 2.7 0  1.3 2.7 0  1.4 2.7 0  1.5 2.7 0  1.6 2.7 0  1.7 2.7 0  1.8 2.7 0  1.9 2.7 0  2 2.7 0  0 2.8 0  0.1 2.8 0  0.2 2.8 0  0.3 2.8 0  0.4 2.8 0  0.5 2.8 0  0.6 2.8 0  0.7 2.8 0  0.8 2.8 0  0.9 2.8 0  1 2.8 0  1.1 2.8 0  1.2 2.8 0  1.3 2.8 0  1.4 2.8 0  1.5 2.8 0  1.6 2.8 0  1.7 2.8 0  1.8 2.8 0  1.9 2.8 0  2 2.8 0  0 2.9 0  0.1 2.9 0  0.2 2.9 0  0.3 2.9 0  0.4 2.9 0  0.5 2.9 0  0.6 2.9 0  0.7 2.9 0  0.8 2.9 0  0.9 2.9 0  1 2.9 0  1.1 2.9 0  1.2 2.9 0  1.3 2.9 0  1.4 2.9 0  1.5 2.9 0  1.6 2.9 0  1.7 2.9 0  1.8 2.9 0  1.9 2.9 0  2 2.9 0  0 3 0  0.1 3 0  0.2 3 0  0.3 3 0  0.4 3 0  0.5 3 0  0.6 3 0  0.7 3 0  0.8 3 0  0.9 3 0  1 3 0  1.1 3 0  1.2 3 0  1.3 3 0  1.4 3 0  1.5 3 0  1.6 3 0  1.7 3 0  1.8 3 0  1.9 3 0  2 3 0  0 3.1 0  0.1 3.1 0  0.2 3.1 0  0.3 3.1 0  0.4 3.1 0  0.5 3.1 0  0.6 3.1 0  0.7 3.1 0  0.8 3.1 0  0.9 3.1 0  1 3.1 0  1.1 3.1 0  1.2 3.1 0  1.3 3.1 0  1.4 3.1 0  1.5 3.1 0  1.6 3.1 0  1.7 3.1 0  1.8 3.1 0  1.9 3.1 0  2 3.1 0  0 3.2 0  0.1 3.2 0  0.2 3.2 0  0.3 3.2 0  0.4 3.2 0  0.5 3.2 0  0.6 3.2 0  0.7 3.2 0  0.8 3.2 0  0.9 3.2 0  1 3.2 0  1.1 3.2 0  1.2 3.2 0  1.3 3.2 0  1.4 3.2 0  1.5 3.2 0  1.6 3.2 0  1.7 3.2 0  1.8 3.2 0  1.9 3.2 0  2 3.2 0  0 3.3 0  0.1 3.3 0  0.2 3.3 0  0.3 3.3 0  0.4 3.3 0  0.5 3.3 0  0.6 3.3 0  0.7 3.3 0  0.8 3.3 0  0.9 3.3 0  1 3.3 0  1.1 3.3 0  1.2 3.3 0  1.3 3.3 0  1.4 3.3 0  1.5 3.3 0  1.6 3.3 0  1.7 3.3 0  1.8 3.3 0  1.9 3.3 0  2 3.3 0  0 3.4 0  0.1 3.4 0  0.2 3.4 0  0.3 3.4 0  0.4 3.4 0  0.5 3.4 0  0.6 3.4 0  0.7 3.4 0  0.8 3.4 0  0.9 3.4 0  1 3.4 0  1.1 3.4 0  1.2 3.4 0  1.3 3.4 0  1.4 3.4 0  1.5 3.4 0  1.6 3.4 0  1.7 3.4 0  1.8 3.4 0  1.9 3.4 0  2 3.4 0  0 3.5 0  0.1 3.5 0  0.2 3.5 0  0.3 3.5 0  0.4 3.5 0  0.5 3.5 0  0.6 3.5 0  0.7 3.5 0  0.8 3.5 0  0.9 3.5 0  1 3.5 0  1.1 3.5 0  1.2 3.5 0  1.3 3.5 0  1.4 3.5 0  1.5 3.5 0  1.6 3.5 0  1.7 3.5 0  1.8 3.5 0  1.9 3.5 0  2 3.5 0  0 3.6 0  0.1 3.6 0  0.2 3.6 0  0.3 3.6 0  0.4 3.6 0  0.5 3.6 0  0.6 3.6 0  0.7 3.6 0  0.8 3.6 0  0.9 3.6 0  1 3.6 0  1.1 3.6 0  1.2 3.6 0  1.3 3.6 0  1.4 3.6 0  1.5 3.6 0  1.6 3.6 0  1.7 3.6 0  1.8 3.6 0  1.9 3.6 0  2 3.6 0  0 3.7 0  0.1 3.7 0  0.2 3.7 0  0.3 3.7 0  0.4 3.7 0  0.5 3.7 0  0.6 3.7 0  0.7 3.7 0  0.8 3.7 0  0.9 3.7 0  1 3.7 0  1.1 3.7 0  1.2 3.7 0  1.3 3.7 0  1.4 3.7 0  1.5 3.7 0  1.6 3.7 0  1.7 3.7 0  1.8 3.7 0  1.9 3.7 0  2 3.7 0  0 3.8 0  0.1 3.8 0  0.2 3.8 0  0.3 3.8 0  0.4 3.8 0  0.5 3.8 0  0.6 3.8 0  0.7 3.8 0  0.8 3.8 0  0.9 3.8 0  1 3.8 0  1.1 3.8 0  1.2 3.8 0  1.3 3.8 0  1.4 3.8 0  1.5 3.8 0  1.6 3.8 0  1.7 3.8 0  1.8 3.8 0  1.9 3.8 0  2 3.8 0  0 3.9 0  0.1 3.9 0  0.2 3.9 0  0.3 3.9 0  0.4 3.9 0  0.5 3.9 0  0.6 3.9 0  0.7 3.9 0  0.8 3.9 0  0.9 3.9 0  1 3.9 0  1.1 3.9 0  1.2 3.9 0  1.3 3.9 0  1.4 3.9 0  1.5 3.9 0  1.6 3.9 0  1.7 3.9 0  1.8 3.9 0  1.9 3.9 0  2 3.9 0  0 4 0  0.1 4 0  0.2 4 0  0.3 4 0  0.4 4 0  0.5 4 0  0.6 4 0  0.7 4 0  0.8 4 0  0.9 4 0  1 4 0  1.1 4 0  1.2 4 0  1.3 4 0  1.4 4 0  1.5 4 0  1.6 4 0  1.7 4 0  1.8 4 0  1.9 4 0  2 4 0  </DataArray>
</Points>
<Cells>
[...]
<PointData  Scalars="f_107-1"> 
<DataArray  type="Float64"  Name="f_107-1"  format="ascii">0.0000000000000000e+00  0.0000000000000000e+00  0.0000000000000000e+00  0.0000000000000000e+00  0.0000000000000000e+00  0.0000000000000000e+00  0.0000000000000000e+00  0.0000000000000000e+00  0.0000000000000000e+00  0.0000000000000000e+00  0.0000000000000000e+00  0.0000000000000000e+00  0.0000000000000000e+00  0.0000000000000000e+00  0.0000000000000000e+00  0.0000000000000000e+00  0.0000000000000000e+00  0.0000000000000000e+00  0.0000000000000000e+00  0.0000000000000000e+00  0.0000000000000000e+00  4.1265636933684464e-02  4.2895228758369590e-02  4.4425424347909873e-02  4.5700475661792112e-02  4.7181757911542867e-02  4.8854964862572729e-02  5.0619754768750455e-02  5.2312868688344297e-02  5.3742772268074848e-02  5.4718021502148037e-02  5.5094167236101610e-02  5.4810553142535322e-02  5.3913225235269986e-02  5.2541834593617262e-02  5.0889424377739266e-02  4.9160477364944506e-02  4.7536415509589175e-02  4.6192171546577558e-02  4.5190159588652086e-02  4.5094485616835669e-02  4.4826519846406378e-02  7.9877249509331297e-02  8.0330051346288567e-02  8.1497887506095379e-02  8.3530263039543654e-02  8.6249327632330605e-02  8.9429853078345722e-02  9.2832837982209995e-02  9.6122765892515755e-02  9.8916231496148352e-02  1.0081618675953576e-01  1.0152170057893500e-01  1.0090445462700511e-01  9.9071280548775495e-02  9.6326474365845571e-02  9.3071984850723349e-02  8.9711070067605661e-02  8.6591046685778508e-02  8.3973981396664218e-02  8.2066692275118078e-02  8.0883482171072968e-02  8.0561713844316887e-02  1.1715143103492166e-01  1.1773424382586273e-01  1.1968917127211690e-01  1.2288601632913883e-01  1.2710710722588170e-01  1.3212130857721094e-01  1.3757779120127531e-01  1.4294192086827939e-01  1.4758324825997310e-01  1.5078413736049295e-01  1.5199419102888484e-01  1.5095062100366655e-01  1.4785939929476288e-01  1.4329344677278277e-01  1.3796644068833350e-01  1.3254930812815899e-01  1.2757967068587805e-01  1.2344637759039244e-01  1.2039712063381221e-01  1.1860765189631899e-01  1.1806653285960857e-01  1.5294570133416088e-01  1.5368343874599869e-01  1.5627174677276481e-01  1.6060338846158315e-01  1.6651840448772265e-01  1.7371149771910588e-01  1.8172867766094397e-01  1.8978542659703931e-01  1.9695718835665932e-01  2.0199766707453654e-01  2.0395828635633673e-01  2.0226414783543728e-01  1.9732961168420371e-01  1.9022920390377493e-01  1.8217124510333924e-01  1.7417987412234787e-01  1.6699927048419738e-01  1.6111393169307028e-01  1.5681768873072080e-01  1.5425130580578630e-01  1.5351116007077270e-01  1.8684402055139004e-01  1.8779361901267669e-01  1.9116458350098678e-01  1.9687419113452639e-01  2.0480636417562095e-01  2.1463593878607568e-01  2.2593637961160917e-01  2.3765635354705764e-01  2.4862289494883991e-01  2.5656000856479477e-01  2.5985450282566230e-01  2.5706760241621190e-01  2.4919714596154477e-01  2.3834496567489294e-01  2.2652471419811229e-01  2.1521228824566327e-01  2.0533069549308922e-01  1.9740125469458328e-01  1.9169206309339301e-01  1.8832309378610940e-01  1.8735191921537472e-01  2.1831324566593086e-01  2.1949421332004759e-01  2.2369925837253635e-01  2.3090619828571757e-01  2.4111722540920166e-01  2.5411479608029375e-01  2.6973567507129004e-01  2.8656267591902057e-01  3.0341371358431340e-01  3.1592190579899293e-01  3.2182145027550330e-01  3.1690424673103107e-01  3.0397519731881462e-01  2.8733100211417101e-01  2.7028233889033421e-01  2.5473026311062358e-01  2.4163463919046335e-01  2.3139950659772521e-01  2.2416181338280616e-01  2.1993454648703101e-01  2.1872620184383351e-01  2.4677575916490263e-01  2.4818638329402865e-01  2.5322055978694524e-01  2.6195141279132272e-01  2.7455055320000860e-01  2.9105345112167852e-01  3.1172605087148625e-01  3.3490328180551543e-01  3.6107292377761596e-01  3.8181783191864899e-01  3.9476999866732293e-01  3.8486342933998102e-01  3.6237168029507105e-01  3.3671650753983279e-01  3.1251788857419549e-01  2.9179129620368127e-01  2.7508442635468339e-01  2.6241547102987473e-01  2.5363168980023415e-01  2.4856405275996601e-01  2.4712468672930674e-01  2.7166388907587236e-01  2.7327640956020327e-01  2.7904172663993665e-01  2.8915279712167574e-01  3.0401497451263082e-01  3.2416075807215294e-01  3.5064919284786394e-01  3.8312329608557888e-01  4.2578714753648439e-01  4.6090441138229332e-01  4.9132826931182250e-01  4.6453967111955385e-01  4.2413019757459441e-01  3.8444089519886976e-01  3.5125122516396645e-01  3.2479803255041689e-01  3.0448250840633923e-01  2.8954069867578830e-01  2.7937719058202098e-01  2.7357909344033743e-01  2.7194286562155512e-01  2.9248447024829838e-01  2.9423994251765956e-01  3.0052053041469334e-01  3.1161896613743961e-01  3.2814474372587005e-01  3.5108465103529823e-01  3.8209663593070597e-01  4.2279054593222171e-01  4.7982454986957762e-01  5.3951847151463272e-01  6.3323121263351356e-01  5.6184563649680153e-01  4.8347745101573858e-01  4.2587196448600234e-01  3.8313421506765505e-01  3.5166678741629770e-01  3.2850923874200433e-01  3.1189733784759638e-01  3.0076069299435032e-01  2.9445985202201480e-01  2.9269095895747155e-01  3.0889544896390259e-01  3.1070943664425021e-01  3.1719269327541139e-01  3.2868479963936403e-01  3.4591074942239630e-01  3.7015830914039588e-01  4.0377009950739229e-01  4.5152102281571049e-01  5.2603443736242594e-01  6.4902276943290704e-01  1.0000000000000000e+00  6.4904005063097026e-01  5.2606900320195638e-01  4.5157280988230714e-01  4.0383884409542148e-01  3.7024335453931001e-01  3.4601082953148521e-01  3.2879782237823424e-01  3.1731564284552805e-01  3.1083838434769395e-01  3.0902586093732598e-01  3.2076644388389042e-01  3.2254223337324872e-01  3.2886789743139122e-01  3.4004469323972658e-01  3.5670826330894556e-01  3.7992424112264322e-01  4.1145172194928803e-01  4.5424614385354983e-01  5.1190050955744815e-01  5.9030635732826142e-01  6.6171623859946271e-01  5.6801375438666990e-01  5.0831681232376436e-01  4.5126858804643405e-01  4.1055234099815746e-01  3.7951355299830325e-01  3.5654613609833241e-01  3.3999553132600868e-01  3.2887769298032621e-01  3.2258493468334365e-01  3.2082565412407621e-01  3.2820617838119270e-01  3.2985546063407062e-01  3.3569958829219454e-01  3.4593736930492525e-01  3.6097435707396530e-01  3.8139686585420590e-01  4.0795888096547583e-01  4.4124935250891184e-01  4.8102261008403535e-01  5.2149225114598641e-01  5.4831284815855386e-01  5.1789142267503274e-01  4.8274871458235902e-01  4.4003605870398360e-01  4.0749656763379449e-01  3.8093433247311476e-01  3.6071496941177539e-01  3.4578741163863796e-01  3.3562574908935611e-01  3.2982907135867029e-01  3.2820718141186178e-01  3.3153974218315774e-01  3.3299953735407661e-01  3.3813937731504506e-01  3.4703881256047703e-01  3.5985559885633484e-01  3.7672799961529935e-01  3.9762209493394723e-01  4.2197453033807769e-01  4.4775574287284869e-01  4.7033460857537335e-01  4.8028231919163522e-01  4.6732311062494891e-01  4.4652583825065784e-01  4.2026606701358427e-01  3.9697233185133962e-01  3.7617060307587169e-01  3.5954045201490359e-01  3.4682913057609821e-01  3.3801206713889326e-01  3.3292481448358890e-01  3.3149857360150109e-01  3.3124527478243315e-01  3.3248391157899138e-01  3.3681611231699055e-01  3.4422285406897130e-01  3.5467300531457746e-01  3.6800863954132013e-01  3.8380265684792897e-01  4.0107228673567369e-01  4.1789572217832954e-01  4.3094579007800565e-01  4.3591532719824982e-01  4.2999620494113860e-01  4.1740091921659689e-01  4.0040678812680586e-01  3.8339798285276339e-01  3.6757729591395066e-01  3.5438401365170047e-01  3.4400168463819880e-01  3.3666489126730392e-01  3.3238105675663038e-01  3.3117736242750478e-01  3.2787670514768891e-01  3.2889001922969063e-01  3.3241156117396331e-01  3.3835955000770851e-01  3.4659214286578544e-01  3.5681086787412253e-01  3.6846248176058655e-01  3.8059166778132197e-01  3.9169305447165148e-01  3.9972931627879665e-01  4.0258349140029259e-01  3.9925303903100895e-01  3.9118312856308252e-01  3.8000382251589748e-01  3.6801645763645707e-01  3.5642491006157934e-01  3.4631440320151158e-01  3.3814074216047890e-01  3.3225193716865276e-01  3.2877319491885282e-01  3.2779339834438986e-01  3.2199624440531804e-01  3.2279899046854627e-01  3.2557247960941310e-01  3.3020628484862896e-01  3.3651386572950515e-01  3.4416284269009662e-01  3.5262419526063821e-01  3.6110923758185698e-01  3.6855240305924386e-01  3.7371182037209549e-01  3.7549139113843727e-01  3.7347008190952108e-01  3.6823206764800792e-01  3.6075021631689236e-01  3.5230705842599841e-01  3.4387156774414290e-01  3.3627437901144980e-01  3.3000739338369073e-01  3.2541688466098606e-01  3.2267871846639079e-01  3.2190586500518042e-01  3.1412820298452382e-01  3.1474506476038572e-01  3.1686503599341437e-01  3.2037417852263989e-01  3.2508503029984753e-01  3.3069141564407328e-01  3.3674917690101236e-01  3.4265983592513349e-01  3.4769514233268078e-01  3.5109386836802181e-01  3.5225189087086922e-01  3.5095295429835127e-01  3.4747229441220551e-01  3.4239418747334277e-01  3.3648747308214305e-01  3.3044639755445221e-01  3.2487329423918765e-01  3.2019421422737426e-01  3.1671760116025210e-01  3.1462682314720913e-01  3.1403565004323108e-01  3.0473497356768015e-01  3.0519347600208890e-01  3.0676125706022656e-01  3.0933615888232457e-01  3.1275402182822437e-01  3.1676159618520333e-01  3.2101486601738527e-01  3.2508259920441679e-01  3.2847864850139680e-01  3.3073198127584064e-01  3.3149298317233744e-01  3.3064057188788543e-01  3.2832233582681819e-01  3.2488926594231782e-01  3.2081245028100003e-01  3.1656455775314329e-01  3.1257399452703860e-01  3.0917693546757113e-01  3.0662513535278074e-01  3.0508060402279591e-01  3.0464351678687590e-01  2.9421043793855678e-01  2.9453633393259154e-01  2.9564446963141344e-01  2.9745202388186986e-01  2.9982872601027533e-01  3.0258197111461071e-01  3.0546298134916405e-01  3.0817672636459914e-01  3.1040911058368115e-01  3.1187204840329652e-01  3.1236123401543242e-01  3.1180722973744618e-01  3.1029297070533679e-01  3.0802733165110802e-01  3.0529883906667216e-01  3.0241648634337470e-01  2.9967202528414427e-01  2.9730965145529531e-01  2.9551922940305925e-01  2.9442977178665075e-01  2.9412169079148887e-01  2.8288465231962018e-01  2.8309942124372789e-01  2.8382372642648851e-01  2.8499651548375732e-01  2.8652388045395172e-01  2.8827226224576874e-01  2.9007701904229843e-01  2.9175278658751563e-01  2.9311222454798525e-01  2.9399189925193947e-01  2.9428047589467304e-01  2.9394135819790318e-01  2.9301959390361593e-01  2.9163084932580952e-01  2.8993942713559095e-01  2.8813025645338541e-01  2.8638604621823976e-01  2.8486846157472490e-01  2.8370853517767120e-01  2.8299934508650043e-01  2.8279953287659038e-01  2.7103466616861061e-01  2.7115453969122172e-01  2.7155134766807026e-01  2.7218515477175931e-01  2.7299641094079358e-01  2.7390518877791459e-01  2.7481971285412726e-01  2.7564586623430920e-01  2.7629712896232395e-01  2.7670618299996103e-01  2.7683155564407685e-01  2.7666216317081344e-01  2.7621618688227800e-01  2.7553858288081845e-01  2.7469755289073911e-01  2.7377774345478739e-01  2.7287130071503785e-01  2.7206756216096661e-01  2.7144429912142892e-01  2.7106032462573382e-01  2.7095341021425640e-01  2.5889759397649909e-01  2.5893351293421962e-01  2.5903995500177812e-01  2.5919553315553528e-01  2.5937042956668244e-01  2.5953167915013958e-01  2.5965066390262065e-01  2.5971417188857515e-01  2.5972514152823079e-01  2.5970530241479817e-01  2.5967886069618085e-01  2.5966126408870188e-01  2.5964605214066400e-01  2.5961099187684195e-01  2.5953509480844367e-01  2.5941192796777279e-01  2.5925337971044771e-01  2.5908534889098078e-01  2.5893937587249199e-01  2.5884446820882984e-01  2.5882025780375678e-01  2.4668383637968674e-01  2.4664212225119153e-01  2.4647872172483262e-01  2.4618685015891131e-01  2.4575939505928424e-01  2.4520225391372261e-01  2.4453965177291134e-01  2.4383602979093530e-01  2.4318401736334905e-01  2.4270974735664272e-01  2.4251616901744835e-01  2.4265775250311303e-01  2.4309643565791320e-01  2.4372538509288330e-01  2.4442100986969154e-01  2.4508219202423331e-01  2.4564518043135028e-01  2.4608076621402644e-01  2.4638290620938369e-01  2.4655751265801851e-01  2.4661035019687816e-01  2.3458832366097970e-01  2.3447170254791602e-01  2.3404611826137570e-01  2.3331348373979499e-01  2.3227839924927618e-01  2.3097518000075773e-01  2.2946723113711739e-01  2.2790122996585735e-01  2.2646312001337862e-01  2.2542912308286914e-01  2.2501394031301902e-01  2.2535478371218115e-01  2.2635673107253379e-01  2.2777470878557979e-01  2.2934328669317700e-01  2.3085226600215430e-01  2.3216548300445203e-01  2.3320993831516929e-01  2.3395435288689356e-01  2.3439133614865026e-01  2.3451887808011407e-01  2.2279929373337373e-01  2.2260869037748232e-01  2.2192231100323165e-01  2.2074292751024546e-01  2.1907285237989302e-01  2.1696117489216227e-01  2.1447895453386387e-01  2.1185515840755936e-01  2.0935220308322189e-01  2.0751827458996336e-01  2.0674371752951917e-01  2.0738679728954756e-01  2.0920196846862213e-01  2.1167626352507285e-01  2.1432871438925802e-01  2.1682081303187778e-01  2.1895646844005487e-01  2.2063988678885105e-01  2.2183420852889799e-01  2.2253287802153340e-01  2.2273437127778348e-01  2.1150209340812631e-01  2.1123864850239857e-01  2.1029362585257025e-01  2.0865956302710156e-01  2.0631705555622204e-01  2.0329736016324626e-01  1.9961518450597565e-01  1.9560224046751865e-01  1.9153301491842983e-01  1.8849291205808918e-01  1.8704269818576300e-01  1.8824319815879065e-01  1.9138949681903800e-01  1.9540758922057710e-01  1.9947989130808433e-01  2.0315016164458399e-01  2.0620227796340460e-01  2.0855990213258646e-01  2.1021099575617758e-01  2.1116897436883419e-01  2.1144296669022772e-01  2.0087833285047443e-01  2.0054635040810062e-01  1.9935655217349599e-01  1.9728134943729714e-01  1.9426407154882355e-01  1.9027868308812418e-01  1.8523894372985861e-01  1.7954717297522199e-01  1.7306261384500732e-01  1.6790155779482915e-01  1.6465444231218690e-01  1.6713109410275576e-01  1.7273503587288741e-01  1.7909123626984325e-01  1.8504467141854780e-01  1.9010271849565968e-01  1.9414563338924784e-01  1.9718717144870360e-01  1.9928205533294005e-01  2.0048531249497101e-01  2.0082697347654094e-01  1.9109747440411018e-01  1.9070658113345246e-01  1.8930533522684642e-01  1.8683868810141935e-01  1.8319499404764014e-01  1.7822777516558755e-01  1.7165604349920460e-01  1.6355707403660372e-01  1.5285511335916560e-01  1.4402921127435614e-01  1.3635132435186367e-01  1.4311029206205364e-01  1.5327687446603425e-01  1.6322814047115269e-01  1.7151110433409028e-01  1.7807769220701380e-01  1.8309232491688723e-01  1.8676091817896759e-01  1.8924523322966380e-01  1.9065818403931126e-01  1.9105681631847374e-01  1.8230373623439408e-01  1.8187059784985452e-01  1.8031837153175292e-01  1.7756898084974643e-01  1.7346237353694710e-01  1.6774128582084993e-01  1.5997780641155007e-01  1.4975615485155172e-01  1.3538380489235599e-01  1.2031674486174199e-01  9.6615288786120732e-02  1.1466798078582716e-01  1.3446257643826640e-01  1.4898168364232020e-01  1.5972322021960572e-01  1.6760512571311820e-01  1.7338480993606878e-01  1.7751679765255873e-01  1.8027907718227737e-01  1.8183892467019286e-01  1.8227676661293948e-01  1.7459879310627813e-01  1.7414590057235435e-01  1.7252554637330150e-01  1.6964959354446241e-01  1.6533140945033964e-01  1.5924099475534140e-01  1.5078099298543562e-01  1.3873851429013873e-01  1.1991495047460739e-01  8.8812417106663502e-02  0.0000000000000000e+00  8.8809732323442928e-02  1.1990972521650149e-01  1.3873102331254458e-01  1.5077161464581659e-01  1.5923017992166616e-01  1.6531963811764142e-01  1.6963735709125799e-01  1.7251327422581195e-01  1.7413402858586702e-01  1.7458760095104958e-01  1.6802801130917513e-01  1.6758046214485450e-01  1.6598519906566961e-01  1.6316534462723400e-01  1.5895919892580709e-01  1.5309599422967166e-01  1.4512941266482435e-01  1.3431041400179786e-01  1.1972876241861075e-01  9.9892773313123240e-02  8.1823939877819871e-02  1.0553602964466560e-01  1.2063927732672299e-01  1.3506953984311101e-01  1.4536481010831381e-01  1.5321005876547233e-01  1.5901275331448161e-01  1.6319261785899775e-01  1.6599956257845103e-01  1.6758807532102074e-01  1.6803235547400275e-01  1.6257475612278655e-01  1.6215508970077361e-01  1.6066747129540010e-01  1.5806243271366169e-01  1.5423872029534405e-01  1.4904976028353001e-01  1.4230684195771712e-01  1.3386310075927790e-01  1.2378274914049016e-01  1.1353180331699263e-01  1.0674171342582822e-01  1.1444478784245291e-01  1.2334946261266090e-01  1.3417556905736946e-01  1.4243126369788769e-01  1.4917631846039808e-01  1.5431595292730982e-01  1.5811395957461399e-01  1.6070146755591508e-01  1.6217847029733057e-01  1.6259206433103565e-01  1.5816723356028831e-01  1.5779116958990830e-01  1.5646674037719505e-01  1.5417619762141427e-01  1.5088332502345145e-01  1.4655798480362495e-01  1.4121430596189843e-01  1.3500055755383344e-01  1.2843563394066729e-01  1.2269580001463369e-01  1.2016996849075361e-01  1.2345957378809808e-01  1.2875025335343140e-01  1.3543805864258482e-01  1.4138573311701685e-01  1.4670793326340054e-01  1.5097385249073303e-01  1.5424183602851940e-01  1.5651312114687535e-01  1.5782557020233895e-01  1.5819403005056473e-01  1.5469553580564963e-01  1.5437045830534391e-01  1.5323308087527474e-01  1.5129235482011263e-01  1.4856250367393550e-01  1.4509183514716401e-01  1.4099796057472194e-01  1.3653940027024561e-01  1.3221159485169934e-01  1.2886392502068184e-01  1.2759121412891034e-01  1.2910579394930174e-01  1.3233996976848267e-01  1.3671262785316943e-01  1.4110690197253709e-01  1.4520929339102259e-01  1.4864570340701483e-01  1.5136010301063280e-01  1.5328467229720724e-01  1.5441116571407759e-01  1.5472839852734449e-01  1.5203230564506090e-01  1.5175812364767477e-01  1.5080463972895619e-01  1.4919871629355641e-01  1.4698579005084361e-01  1.4425396632960399e-01  1.4115767569260215e-01  1.3795361213114468e-01  1.3503664513127842e-01  1.3293369619826778e-01  1.3218792955651396e-01  1.3305565512633824e-01  1.3516858632063505e-01  1.3810680563883670e-01  1.4127658994485581e-01  1.4435936094375670e-01  1.4706550752388611e-01  1.4926522317287724e-01  1.5085775049237538e-01  1.5180188880608253e-01  1.5206874307148546e-01  1.5005087837511344e-01  1.4982230452826745e-01  1.4903091019465692e-01  1.4771356730259649e-01  1.4593091101379443e-01  1.4378496429477364e-01  1.4143028687059933e-01  1.3908806724913533e-01  1.3704824518823400e-01  1.3564175113872387e-01  1.3515693944481144e-01  1.3570420449267154e-01  1.3713191205606162e-01  1.3918293227399015e-01  1.4151606681295598e-01  1.4386582602984338e-01  1.4600036917404124e-01  1.4777451112321374e-01  1.4908258537467384e-01  1.4986666960318845e-01  1.5008918638568544e-01  1.4863903198968131e-01  1.4844695858516649e-01  1.4778556395112863e-01  1.4669518944438689e-01  1.4524178531061246e-01  1.4352753127251366e-01  1.4169368058745313e-01  1.3992219151015606e-01  1.3842633686726974e-01  1.3742280317171626e-01  1.3708042956739605e-01  1.3745955488776757e-01  1.3848496961536219e-01  1.3999291193842306e-01  1.4176481054920551e-01  1.4359602146332237e-01  1.4530358587670472e-01  1.4675082342780146e-01  1.4783479056665225e-01  1.4849082949544096e-01  1.4867786346524439e-01  1.4770464356515750e-01  1.4754027007284309e-01  1.4697145227373373e-01  1.4604120035888732e-01  1.4481539542335761e-01  1.4339147898384980e-01  1.4189615157070709e-01  1.4048110706929404e-01  1.3931049827981584e-01  1.3853815070422038e-01  1.3827576613446382e-01  1.3856219266654118e-01  1.3935192712809336e-01  1.4053299517269319e-01  1.4195162653760926e-01  1.4344714110300663e-01  1.4486854511912806e-01  1.4609115794441777e-01  1.4701762702438917e-01  1.4758263084370843e-01  1.4774417068883514e-01  1.4718765440909329e-01  1.4703488214502430e-01  1.4652066813958614e-01  1.4568389759829728e-01  1.4458849320285092e-01  1.4332811299504802e-01  1.4201921918756386e-01  1.4079559432279126e-01  1.3979506691652963e-01  1.3914071236357509e-01  1.38918394806