<?xml version="1.0"?>
<VTKFile type="UnstructuredGrid"  version="0.1"  >
<UnstructuredGrid>
<Piece  NumberOfPoints="861" NumberOfCells="1600">
<Points>
<DataArray  type="Float64"  NumberOfComponents="3"  format="ascii">0 0 0  0.1 0 0  0.2 0 0  0.3 0 0  0.4 0 0  0.5 0 0  0.6 0 0  0.7 0 0  0.8 0 0  0.9 0 0  1 0 0  1.1 0 0  1.2 0 0  1.3 0 0  1.4 0 0  1.5 0 0  1.6 0 0  1.7 0 0  1.8 0 0  1.9 0 0  2 0 0  0 0.1 0  0.1 0.1 0  0.2 0.1 0  0.3 0.1 0  0.4 0.1 0  0.5 0.1 0  0.6 0.1 0  0.7 0.1 0  0.8 0.1 0  0.9 0.1 0  1 0.1 0  1.1 0.1 0  1.2 0.1 0  1.3 0.1 0  1.4 0.1 0  1.5 0.1 0  1.6 0.1 0  1.7 0.1 0  1.8 0.1 0  1.9 0.1 0  2 0.1 0  0 0.2 0  0.1 0.2 0  0.2 0.2 0  0.3 0.2 0  0.4 0.2 0  0.5 0.2 0  0.6 0.2 0  0.7 0.2 0  0.8 0.2 0  0.9 0.2 0  1 0.2 0  1.1 0.2 0  1.2 0.2 0  1.3 0.2 0  1.4 0.2 0  1.5 0.2 0  1.6 0.2 0  1.7 0.2 0  1.8 0.2 0  1.9 0.2 0  2 0.2 0  0 0.3 0  0.1 0.3 0  0.2 0.3 0  0.3 0.3 0  0.4 0.3 0  0.5 0.3 0  0.6 0.3 0  0.7 0.3 0  0.8 0.3 0  0.9 0.3 0  1 0.3 0  1.1 0.3 0  1.2 0.3 0  1.3 0.3 0  1.4 0.3 0  1.5 0.3 0  1.6 0.3 0  1.7 0.3 0  1.8 0.3 0  1.9 0.3 0  2 0.3 0  0 0.4 0  0.1 0.4 0  0.2 0.4 0  0.3 0.4 0  0.4 0.4 0  0.5 0.4 0  0.6 0.4 0  0.7 0.4 0  0.8 0.4 0  0.9 0.4 0  1 0.4 0  1.1 0.4 0  1.2 0.4 0  1.3 0.4 0  1.4 0.4 0  1.5 0.4 0  1.6 0.4 0  1.7 0.4 0  1.8 0.4 0  1.9 0.4 0  2 0.4 0  0 0.5 0  0.1 0.5 0  0.2 0.5 0  0.3 0.5 0  0.4 0.5 0  0.5 0.5 0  0.6 0.5 0  0.7 0.5 0  0.8 0.5 0  0.9 0.5 0  1 0.5 0  1.1 0.5 0  1.2 0.5 0  1.3 0.5 0  1.4 0.5 0  1.5 0.5 0  1.6 0.5 0  1.7 0.5 0  1.8 0.5 0  1.9 0.5 0  2 0.5 0  0 0.6 0  0.1 0.6 0  0.2 0.6 0  0.3 0.6 0  0.4 0.6 0  0.5 0.6 0  0.6 0.6 0  0.7 0.6 0  0.8 0.6 0  0.9 0.6 0  1 0.6 0  1.1 0.6 0  1.2 0.6 0  1.3 0.6 0  1.4 0.6 0  1.5 0.6 0  1.6 0.6 0  1.7 0.6 0  1.8 0.6 0  1.9 0.6 0  2 0.6 0  0 0.7 0  0.1 0.7 0  0.2 0.7 0  0.3 0.7 0  0.4 0.7 0  0.5 0.7 0  0.6 0.7 0  0.7 0.7 0  0.8 0.7 0  0.9 0.7 0  1 0.7 0  1.1 0.7 0  1.2 0.7 0  1.3 0.7 0  1.4 0.7 0  1.5 0.7 0  1.6 0.7 0  1.7 0.7 0  1.8 0.7 0  1.9 0.7 0  2 0.7 0  0 0.8 0  0.1 0.8 0  0.2 0.8 0  0.3 0.8 0  0.4 0.8 0  0.5 0.8 0  0.6 0.8 0  0.7 0.8 0  0.8 0.8 0  0.9 0.8 0  1 0.8 0  1.1 0.8 0  1.2 0.8 0  1.3 0.8 0  1.4 0.8 0  1.5 0.8 0  1.6 0.8 0  1.7 0.8 0  1.8 0.8 0  1.9 0.8 0  2 0.8 0  0 0.9 0  0.1 0.9 0  0.2 0.9 0  0.3 0.9 0  0.4 0.9 0  0.5 0.9 0  0.6 0.9 0  0.7 0.9 0  0.8 0.9 0  0.9 0.9 0  1 0.9 0  1.1 0.9 0  1.2 0.9 0  1.3 0.9 0  1.4 0.9 0  1.5 0.9 0  1.6 0.9 0  1.7 0.9 0  1.8 0.9 0  1.9 0.9 0  2 0.9 0  0 1 0  0.1 1 0  0.2 1 0  0.3 1 0  0.4 1 0  0.5 1 0  0.6 1 0  0.7 1 0  0.8 1 0  0.9 1 0  1 1 0  1.1 1 0  1.2 1 0  1.3 1 0  1.4 1 0  1.5 1 0  1.6 1 0  1.7 1 0  1.8 1 0  1.9 1 0  2 1 0  0 1.1 0  0.1 1.1 0  0.2 1.1 0  0.3 1.1 0  0.4 1.1 0  0.5 1.1 0  0.6 1.1 0  0.7 1.1 0  0.8 1.1 0  0.9 1.1 0  1 1.1 0  1.1 1.1 0  1.2 1.1 0  1.3 1.1 0  1.4 1.1 0  1.5 1.1 0  1.6 1.1 0  1.7 1.1 0  1.8 1.1 0  1.9 1.1 0  2 1.1 0  0 1.2 0  0.1 1.2 0  0.2 1.2 0  0.3 1.2 0  0.4 1.2 0  0.5 1.2 0  0.6 1.2 0  0.7 1.2 0  0.8 1.2 0  0.9 1.2 0  1 1.2 0  1.1 1.2 0  1.2 1.2 0  1.3 1.2 0  1.4 1.2 0  1.5 1.2 0  1.6 1.2 0  1.7 1.2 0  1.8 1.2 0  1.9 1.2 0  2 1.2 0  0 1.3 0  0.1 1.3 0  0.2 1.3 0  0.3 1.3 0  0.4 1.3 0  0.5 1.3 0  0.6 1.3 0  0.7 1.3 0  0.8 1.3 0  0.9 1.3 0  1 1.3 0  1.1 1.3 0  1.2 1.3 0  1.3 1.3 0  1.4 1.3 0  1.5 1.3 0  1.6 1.3 0  1.7 1.3 0  1.8 1.3 0  1.9 1.3 0  2 1.3 0  0 1.4 0  0.1 1.4 0  0.2 1.4 0  0.3 1.4 0  0.4 1.4 0  0.5 1.4 0  0.6 1.4 0  0.7 1.4 0  0.8 1.4 0  0.9 1.4 0  1 1.4 0  1.1 1.4 0  1.2 1.4 0  1.3 1.4 0  1.4 1.4 0  1.5 1.4 0  1.6 1.4 0  1.7 1.4 0  1.8 1.4 0  1.9 1.4 0  2 1.4 0  0 1.5 0  0.1 1.5 0  0.2 1.5 0  0.3 1.5 0  0.4 1.5 0  0.5 1.5 0  0.6 1.5 0  0.7 1.5 0  0.8 1.5 0  0.9 1.5 0  1 1.5 0  1.1 1.5 0  1.2 1.5 0  1.3 1.5 0  1.4 1.5 0  1.5 1.5 0  1.6 1.5 0  1.7 1.5 0  1.8 1.5 0  1.9 1.5 0  2 1.5 0  0 1.6 0  0.1 1.6 0  0.2 1.6 0  0.3 1.6 0  0.4 1.6 0  0.5 1.6 0  0.6 1.6 0  0.7 1.6 0  0.8 1.6 0  0.9 1.6 0  1 1.6 0  1.1 1.6 0  1.2 1.6 0  1.3 1.6 0  1.4 1.6 0  1.5 1.6 0  1.6 1.6 0  1.7 1.6 0  1.8 1.6 0  1.9 1.6 0  2 1.6 0  0 1.7 0  0.1 1.7 0  0.2 1.7 0  0.3 1.7 0  0.4 1.7 0  0.5 1.7 0  0.6 1.7 0  0.7 1.7 0  0.8 1.7 0  0.9 1.7 0  1 1.7 0  1.1 1.7 0  1.2 1.7 0  1.3 1.7 0  1.4 1.7 0  1.5 1.7 0  1.6 1.7 0  1.7 1.7 0  1.8 1.7 0  1.9 1.7 0  2 1.7 0  0 1.8 0  0.1 1.8 0  0.2 1.8 0  0.3 1.8 0  0.4 1.8 0  0.5 1.8 0  0.6 1.8 0  0.7 1.8 0  0.8 1.8 0  0.9 1.8 0  1 1.8 0  1.1 1.8 0  1.2 1.8 0  1.3 1.8 0  1.4 1.8 0  1.5 1.8 0  1.6 1.8 0  1.7 1.8 0  1.8 1.8 0  1.9 1.8 0  2 1.8 0  0 1.9 0  0.1 1.9 0  0.2 1.9 0  0.3 1.9 0  0.4 1.9 0  0.5 1.9 0  0.6 1.9 0  0.7 1.9 0  0.8 1.9 0  0.9 1.9 0  1 1.9 0  1.1 1.9 0  1.2 1.9 0  1.3 1.9 0  1.4 1.9 0  1.5 1.9 0  1.6 1.9 0  1.7 1.9 0  1.8 1.9 0  1.9 1.9 0  2 1.9 0  0 2 0  0.1 2 0  0.2 2 0  0.3 2 0  0.4 2 0  0.5 2 0  0.6 2 0  0.7 2 0  0.8 2 0  0.9 2 0  1 2 0  1.1 2 0  1.2 2 0  1.3 2 0  1.4 2 0  1.5 2 0  1.6 2 0  1.7 2 0  1.8 2 0  1.9 2 0  2 2 0  0 2.1 0  0.1 2.1 0  0.2 2.1 0  0.3 2.1 0  0.4 2.1 0  0.5 2.1 0  0.6 2.1 0  0.7 2.1 0  0.8 2.1 0  0.9 2.1 0  1 2.1 0  1.1 2.1 0  1.2 2.1 0  1.3 2.1 0  1.4 2.1 0  1.5 2.1 0  1.6 2.1 0  1.7 2.1 0  1.8 2.1 0  1.9 2.1 0  2 2.1 0  0 2.2 0  0.1 2.2 0  0.2 2.2 0  0.3 2.2 0  0.4 2.2 0  0.5 2.2 0  0.6 2.2 0  0.7 2.2 0  0.8 2.2 0  0.9 2.2 0  1 2.2 0  1.1 2.2 0  1.2 2.2 0  1.3 2.2 0  1.4 2.2 0  1.5 2.2 0  1.6 2.2 0  1.7 2.2 0  1.8 2.2 0  1.9 2.2 0  2 2.2 0  0 2.3 0  0.1 2.3 0  0.2 2.3 0  0.3 2.3 0  0.4 2.3 0  0.5 2.3 0  0.6 2.3 0  0.7 2.3 0  0.8 2.3 0  0.9 2.3 0  1 2.3 0  1.1 2.3 0  1.2 2.3 0  1.3 2.3 0  1.4 2.3 0  1.5 2.3 0  1.6 2.3 0  1.7 2.3 0  1.8 2.3 0  1.9 2.3 0  2 2.3 0  0 2.4 0  0.1 2.4 0  0.2 2.4 0  0.3 2.4 0  0.4 2.4 0  0.5 2.4 0  0.6 2.4 0  0.7 2.4 0  0.8 2.4 0  0.9 2.4 0  1 2.4 0  1.1 2.4 0  1.2 2.4 0  1.3 2.4 0  1.4 2.4 0  1.5 2.4 0  1.6 2.4 0  1.7 2.4 0  1.8 2.4 0  1.9 2.4 0  2 2.4 0  0 2.5 0  0.1 2.5 0  0.2 2.5 0  0.3 2.5 0  0.4 2.5 0  0.5 2.5 0  0.6 2.5 0  0.7 2.5 0  0.8 2.5 0  0.9 2.5 0  1 2.5 0  1.1 2.5 0  1.2 2.5 0  1.3 2.5 0  1.4 2.5 0  1.5 2.5 0  1.6 2.5 0  1.7 2.5 0  1.8 2.5 0  1.9 2.5 0  2 2.5 0  0 2.6 0  0.1 2.6 0  0.2 2.6 0  0.3 2.6 0  0.4 2.6 0  0.5 2.6 0  0.6 2.6 0  0.7 2.6 0  0.8 2.6 0  0.9 2.6 0  1 2.6 0  1.1 2.6 0  1.2 2.6 0  1.3 2.6 0  1.4 2.6 0  1.5 2.6 0  1.6 2.6 0  1.7 2.6 0  1.8 2.6 0  1.9 2.6 0  2 2.6 0  0 2.7 0  0.1 2.7 0  0.2 2.7 0  0.3 2.7 0  0.4 2.7 0  0.5 2.7 0  0.6 2.7 0  0.7 2.7 0  0.8 2.7 0  0.9 2.7 0  1 2.7 0  1.1 2.7 0  1.2 2.7 0  1.3 2.7 0  1.4 2.7 0  1.5 2.7 0  1.6 2.7 0  1.7 2.7 0  1.8 2.7 0  1.9 2.7 0  2 2.7 0  0 2.8 0  0.1 2.8 0  0.2 2.8 0  0.3 2.8 0  0.4 2.8 0  0.5 2.8 0  0.6 2.8 0  0.7 2.8 0  0.8 2.8 0  0.9 2.8 0  1 2.8 0  1.1 2.8 0  1.2 2.8 0  1.3 2.8 0  1.4 2.8 0  1.5 2.8 0  1.6 2.8 0  1.7 2.8 0  1.8 2.8 0  1.9 2.8 0  2 2.8 0  0 2.9 0  0.1 2.9 0  0.2 2.9 0  0.3 2.9 0  0.4 2.9 0  0.5 2.9 0  0.6 2.9 0  0.7 2.9 0  0.8 2.9 0  0.9 2.9 0  1 2.9 0  1.1 2.9 0  1.2 2.9 0  1.3 2.9 0  1.4 2.9 0  1.5 2.9 0  1.6 2.9 0  1.7 2.9 0  1.8 2.9 0  1.9 2.9 0  2 2.9 0  0 3 0  0.1 3 0  0.2 3 0  0.3 3 0  0.4 3 0  0.5 3 0  0.6 3 0  0.7 3 0  0.8 3 0  0.9 3 0  1 3 0  1.1 3 0  1.2 3 0  1.3 3 0  1.4 3 0  1.5 3 0  1.6 3 0  1.7 3 0  1.8 3 0  1.9 3 0  2 3 0  0 3.1 0  0.1 3.1 0  0.2 3.1 0  0.3 3.1 0  0.4 3.1 0  0.5 3.1 0  0.6 3.1 0  0.7 3.1 0  0.8 3.1 0  0.9 3.1 0  1 3.1 0  1.1 3.1 0  1.2 3.1 0  1.3 3.1 0  1.4 3.1 0  1.5 3.1 0  1.6 3.1 0  1.7 3.1 0  1.8 3.1 0  1.9 3.1 0  2 3.1 0  0 3.2 0  0.1 3.2 0  0.2 3.2 0  0.3 3.2 0  0.4 3.2 0  0.5 3.2 0  0.6 3.2 0  0.7 3.2 0  0.8 3.2 0  0.9 3.2 0  1 3.2 0  1.1 3.2 0  1.2 3.2 0  1.3 3.2 0  1.4 3.2 0  1.5 3.2 0  1.6 3.2 0  1.7 3.2 0  1.8 3.2 0  1.9 3.2 0  2 3.2 0  0 3.3 0  0.1 3.3 0  0.2 3.3 0  0.3 3.3 0  0.4 3.3 0  0.5 3.3 0  0.6 3.3 0  0.7 3.3 0  0.8 3.3 0  0.9 3.3 0  1 3.3 0  1.1 3.3 0  1.2 3.3 0  1.3 3.3 0  1.4 3.3 0  1.5 3.3 0  1.6 3.3 0  1.7 3.3 0  1.8 3.3 0  1.9 3.3 0  2 3.3 0  0 3.4 0  0.1 3.4 0  0.2 3.4 0  0.3 3.4 0  0.4 3.4 0  0.5 3.4 0  0.6 3.4 0  0.7 3.4 0  0.8 3.4 0  0.9 3.4 0  1 3.4 0  1.1 3.4 0  1.2 3.4 0  1.3 3.4 0  1.4 3.4 0  1.5 3.4 0  1.6 3.4 0  1.7 3.4 0  1.8 3.4 0  1.9 3.4 0  2 3.4 0  0 3.5 0  0.1 3.5 0  0.2 3.5 0  0.3 3.5 0  0.4 3.5 0  0.5 3.5 0  0.6 3.5 0  0.7 3.5 0  0.8 3.5 0  0.9 3.5 0  1 3.5 0  1.1 3.5 0  1.2 3.5 0  1.3 3.5 0  1.4 3.5 0  1.5 3.5 0  1.6 3.5 0  1.7 3.5 0  1.8 3.5 0  1.9 3.5 0  2 3.5 0  0 3.6 0  0.1 3.6 0  0.2 3.6 0  0.3 3.6 0  0.4 3.6 0  0.5 3.6 0  0.6 3.6 0  0.7 3.6 0  0.8 3.6 0  0.9 3.6 0  1 3.6 0  1.1 3.6 0  1.2 3.6 0  1.3 3.6 0  1.4 3.6 0  1.5 3.6 0  1.6 3.6 0  1.7 3.6 0  1.8 3.6 0  1.9 3.6 0  2 3.6 0  0 3.7 0  0.1 3.7 0  0.2 3.7 0  0.3 3.7 0  0.4 3.7 0  0.5 3.7 0  0.6 3.7 0  0.7 3.7 0  0.8 3.7 0  0.9 3.7 0  1 3.7 0  1.1 3.7 0  1.2 3.7 0  1.3 3.7 0  1.4 3.7 0  1.5 3.7 0  1.6 3.7 0  1.7 3.7 0  1.8 3.7 0  1.9 3.7 0  2 3.7 0  0 3.8 0  0.1 3.8 0  0.2 3.8 0  0.3 3.8 0  0.4 3.8 0  0.5 3.8 0  0.6 3.8 0  0.7 3.8 0  0.8 3.8 0  0.9 3.8 0  1 3.8 0  1.1 3.8 0  1.2 3.8 0  1.3 3.8 0  1.4 3.8 0  1.5 3.8 0  1.6 3.8 0  1.7 3.8 0  1.8 3.8 0  1.9 3.8 0  2 3.8 0  0 3.9 0  0.1 3.9 0  0.2 3.9 0  0.3 3.9 0  0.4 3.9 0  0.5 3.9 0  0.6 3.9 0  0.7 3.9 0  0.8 3.9 0  0.9 3.9 0  1 3.9 0  1.1 3.9 0  1.2 3.9 0  1.3 3.9 0  1.4 3.9 0  1.5 3.9 0  1.6 3.9 0  1.7 3.9 0  1.8 3.9 0  1.9 3.9 0  2 3.9 0  0 4 0  0.1 4 0  0.2 4 0  0.3 4 0  0.4 4 0  0.5 4 0  0.6 4 0  0.7 4 0  0.8 4 0  0.9 4 0  1 4 0  1.1 4 0  1.2 4 0  1.3 4 0  1.4 4 0  1.5 4 0  1.6 4 0  1.7 4 0  1.8 4 0  1.9 4 0  2 4 0  </DataArray>
</Points>
<Cells>
[...]
<PointData  Scalars="f_22-1"> 
<DataArray  type="Float64"  Name="f_22-1"  format="ascii">8.8109400701918742e+02  8.8135163351705296e+02  8.8193497548472646e+02  8.8211171677647667e+02  8.8018119786588852e+02  8.7483149969416183e+02  8.6483368180921013e+02  8.5096179448592682e+02  8.3494536178751537e+02  8.1844349117891988e+02  8.0264518974726434e+02  7.8824041000157376e+02  7.7531997392016501e+02  7.6378566984805343e+02  7.5366945529634711e+02  7.4507443966513586e+02  7.3809950289780181e+02  7.3282521170792086e+02  7.2921655807574905e+02  7.2717569818752099e+02  7.2658461507347954e+02  8.8082908430003943e+02  8.8123427670090928e+02  8.8217053187571184e+02  8.8298691403990620e+02  8.8159768773244991e+02  8.7672640497081704e+02  8.6642036422170986e+02  8.5185291281786920e+02  8.3516189468129073e+02  8.1816610255749833e+02  8.0208808495652704e+02  7.8765334517725353e+02  7.7477194284538768e+02  7.6322246070599249e+02  7.5306504934375823e+02  7.4442775342618813e+02  7.3742060000341098e+02  7.3215857441052924e+02  7.2860023595966686e+02  7.2657493316507066e+02  7.2599353195943308e+02  8.7955697525109269e+02  8.8031666148767329e+02  8.8228403917999663e+02  8.8546171317319204e+02  8.8645439579527783e+02  8.8411264996804971e+02  8.7230465106191627e+02  8.5485292830902040e+02  8.3570788463836561e+02  8.1693141973044510e+02  7.9987203601313729e+02  7.8550953443030505e+02  7.7287809565019347e+02  7.6125871179598960e+02  7.5095219398753420e+02  7.4214621152301777e+02  7.3498128364459888e+02  7.2978345510556812e+02  7.2643736175807146e+02  7.2453161639941266e+02  7.2400033598276696e+02  8.7652689940247672e+02  8.7797638793862461e+02  8.8231264365760433e+02  8.9080345148292474e+02  8.9616327227003831e+02  9.0008893942824272e+02  8.8339516805834671e+02  8.5966870551217107e+02  8.3574685703976218e+02  8.1385026103993187e+02  7.9556869813627407e+02  7.8179478070206130e+02  7.6986190395229585e+02  7.5801056373383858e+02  7.4733133424893026e+02  7.3812672100761779e+02  7.3076904797128964e+02  7.2594227552806910e+02  7.2289816154031143e+02  7.2113094053627253e+02  7.2064741511033083e+02  8.7023403810473917e+02  8.7229952293081180e+02  8.7888118615362123e+02  8.9079606197329144e+02  9.0193350908207219e+02  9.2123740084278029e+02  8.9714526815581041e+02  8.6380916872266312e+02  8.3344976101628265e+02  8.0907912052248196e+02  7.9172337056827962e+02  7.7771808142334430e+02  7.6522914368893305e+02  7.5337469235859521e+02  7.4206066174249645e+02  7.3272420277287358e+02  7.2642596034356029e+02  7.2231073268236401e+02  7.1900504907509492e+02  7.1667297620452382e+02  7.1609449744977337e+02  8.6263051357757251e+02  8.6380454363247941e+02  8.7158912705024738e+02  8.8710752669136275e+02  9.1342457701975923e+02  1.0000000000000000e+03  8.9958202927140724e+02  8.5994669767234063e+02  8.2739558698394308e+02  8.0512155016311567e+02  7.8875129405833184e+02  7.7301431185220827e+02  7.5832061472223586e+02  7.4646759852323123e+02  7.3570428635132112e+02  7.2767730540869547e+02  7.2257325093221277e+02  7.1842116547331409e+02  7.1465078461637154e+02  7.1188049134836797e+02  7.1073379862759293e+02  8.5346740441747340e+02  8.5415859104668755e+02  8.5896726445309355e+02  8.6882192058857663e+02  8.8401693955829694e+02  8.9707592257214048e+02  8.6351493262760096e+02  8.4001230588957776e+02  8.1689791193516044e+02  7.9862265852350299e+02  7.8126852759331632e+02  7.6382278740652134e+02  7.4924142783914488e+02  7.3811393423183767e+02  7.2923457153581751e+02  7.2235077748182528e+02  7.1673890074650899e+02  7.1127266982125673e+02  7.0754921196018813e+02  7.0581896697766445e+02  7.0493318395743597e+02  8.3582880340468841e+02  8.3770627216935577e+02  8.4034998129094765e+02  8.4340827648454911e+02  8.4620050906013444e+02  8.4646484008356811e+02  8.3205998028231625e+02  8.1761584528691753e+02  8.0055501367394140e+02  7.8379617242272172e+02  7.6563990634785887e+02  7.4971540108509089e+02  7.3695815775825929e+02  7.2724909419501444e+02  7.1991543151257792e+02  7.1313876092410919e+02  7.0617350558502028e+02  7.0047162039890509e+02  6.9706157005886678e+02  6.9588323939096097e+02  6.9613589640681801e+02  8.1021555953630775e+02  8.1106922411589312e+02  8.1219597469883740e+02  8.1215087068741298e+02  8.1127129645985463e+02  8.0767555238502246e+02  7.9830416636494363e+02  7.8731603675916131e+02  7.7454275668019227e+02  7.6054229557838198e+02  7.4584371940034237e+02  7.3277467198696479e+02  7.2163010141507812e+02  7.1251368891511072e+02  7.0524175190888923e+02  6.9857213940119175e+02  6.9230031713981998e+02  6.8748309728706306e+02  6.8436540781787483e+02  6.8286054107597806e+02  6.8272623371808629e+02  7.8242270300967778e+02  7.8253903213831791e+02  7.8241353658363676e+02  7.8140605588866902e+02  7.7917161915851898e+02  7.7480680657205403e+02  7.6757962898910466e+02  7.5858729387486630e+02  7.4802981197666281e+02  7.3658818043213080e+02  7.2488284246796570e+02  7.1397022374061567e+02  7.0420013703671555e+02  6.9580555520246241e+02  6.8868483912567103e+02  6.8245730556870819e+02  6.7708866690224261e+02  6.7289716487644364e+02  6.7000501168392066e+02  6.6842303958186596e+02  6.6803245537361579e+02  7.5436454632196705e+02  7.5421615397613277e+02  7.5350959858049441e+02  7.5192539680219625e+02  7.4915299135078942e+02  7.4478277456908290e+02  7.3861284837666335e+02  7.3099741253238403e+02  7.2222076237108365e+02  7.1278006874190282e+02  7.0314649084680843e+02  6.9390137621586575e+02  6.8538542840836453e+02  6.7781826648302820e+02  6.7121805306603096e+02  6.6551272234420856e+02  6.6072234511727652e+02  6.5696369661018593e+02  6.5431535409717958e+02  6.5280044736081379e+02  6.5238258899694995e+02  7.2669082028028220e+02  7.2643710933065779e+02  7.2546836761517272e+02  7.2362557673234824e+02  7.2072437014950162e+02  7.1658279155605521e+02  7.1115342201993133e+02  7.0460420704597868e+02  6.9716904791836646e+02  6.8919379767456337e+02  6.8104031113296890e+02  6.7309335000717863e+02  6.6563327683987563e+02  6.5885600999601809e+02  6.5285031878135749e+02  6.4765536263263391e+02  6.4332070895595257e+02  6.3991598024904783e+02  6.3749582074171724e+02  6.3608530116335476e+02  6.3568752204864563e+02  6.9965819703219756e+02  6.9936530703331357e+02  6.9830123321010205e+02  6.9639029192231044e+02  6.9353990792063360e+02  6.8968044472003987e+02  6.8482223638637652e+02  6.7908134015711130e+02  6.7264466339918636e+02  6.6576617508747938e+02  6.5872084709568117e+02  6.5178622391147258e+02  6.4519180819721373e+02  6.3911487065347171e+02  6.3367156591170988e+02  6.2894170322583568e+02  6.2499174486843458e+02  6.2188271693666502e+02  6.1966273952093502e+02  6.1835967824957265e+02  6.1799066196895603e+02  6.7336170319694156e+02  6.7305914212347716e+02  6.7198006891176772e+02  6.7009448204614262e+02  6.6736599319453205e+02  6.6378199883904551e+02  6.5937965919699775e+02  6.5425818608397412e+02  6.4856982822517739e+02  6.4251003775934998e+02  6.3629358980242534e+02  6.3013663399970130e+02  6.2423153352197517e+02  6.1873810305836605e+02  6.1377875954785679e+02  6.0944785600250020e+02  6.0582088380512903e+02  6.0295935606308490e+02  6.0091060402943936e+02  5.9970425290159562e+02  5.9936212309811560e+02  6.4782444840766595e+02  6.4752492488705661e+02  6.4646586912793555e+02  6.4464241402455934e+02  6.4204989279401843e+02  6.3870529514288842e+02  6.3465936108706626e+02  6.3000353094314767e+02  6.2486698411711950e+02  6.1940896569746076e+02  6.1380484294804546e+02  6.0823245808352419e+02  6.0285743589935726e+02  5.9782510655161366e+02  5.9325627878251157e+02  5.8924942332577552e+02  5.8588400226896579e+02  5.8322295287124768e+02  5.8131411455231068e+02  5.8018822706679873e+02  5.7986859062895360e+02  6.2303861843167363e+02  6.2274630889081959e+02  6.2171715876008227e+02  6.1995994255528387e+02  6.1748737456141100e+02  6.1433189512294837e+02  6.1055095475004782e+02  6.0623117601645390e+02  6.0148683435938176e+02  5.9645453804202509e+02  5.9128436708750621e+02  5.8613013593274854e+02  5.8113959205088963e+02  5.7644742386414305e+02  5.7217088874878482e+02  5.6840877888709019e+02  5.6524189508912673e+02  5.6273387976957565e+02  5.6093274262761099e+02  5.5986943215746226e+02  5.5956729605092880e+02  5.9898645489285923e+02  5.9870100220814425e+02  5.9769794988012836e+02  5.9599331902715539e+02  5.9360904561826078e+02  5.9058540849677092e+02  5.8698284886578119e+02  5.8288456444272265e+02  5.7839539369553017e+02  5.7363815159618184e+02  5.6874760484141802e+02  5.6386334074017225e+02  5.5912240656454992e+02  5.5465306636237131e+02  5.5057009904988399e+02  5.4697204742843735e+02  5.4394002728901876e+02  5.4153750673780462e+02  5.3981173008615872e+02  5.3879274857359292e+02  5.3850301007295911e+02  5.7565137825373665e+02  5.7537001751747550e+02  5.7438192719878987e+02  5.7270679679415457e+02  5.7037115638340697e+02  5.6741894426601141e+02  5.6391158302150302e+02  5.5992978003034148e+02  5.5557268627366068e+02  5.5095536892829648e+02  5.4620449348612374e+02  5.4145280065145619e+02  5.3683295534195838e+02  5.3247149815127716e+02  5.2848349452604975e+02  5.2496842858650939e+02  5.2200774510003509e+02  5.1966394636509892e+02  5.1798215514849630e+02  5.1698997694162313e+02  5.1670778479530179e+02  5.5302389208688396e+02  5.5274262467676533e+02  5.5175463014225818e+02  5.5008122204140398e+02  5.4775080971700459e+02  5.4480856243625919e+02  5.4131571082185008e+02  5.3735111136240607e+02  5.3301081598825226e+02  5.2840646957519346e+02  5.2366219801322575e+02  5.1891008233339835e+02  5.1428450059738202e+02  5.0991565240111697e+02  5.0592300947051154e+02  5.0240950202427325e+02  4.9945761359986176e+02  4.9712792361710024e+02  4.9546127806128356e+02  4.9448033613236214e+02  4.9420148424579310e+02  5.3110459541311639e+02  5.3081886501120630e+02  5.2981446510737771e+02  5.2811307444403860e+02  5.2574321387798921e+02  5.2274964416822741e+02  5.1919248143308198e+02  5.1514895665148561e+02  5.1071366238415783e+02  5.0599792668523452e+02  5.0112786591655350e+02  4.9624059889659492e+02  4.9147872703473575e+02  4.8698272350765666e+02  4.8288232264313780e+02  4.7928788843925179e+02  4.7628422944849149e+02  4.7392838439783560e+02  4.7225312217105960e+02  4.7127177374765245e+02  4.7099333457772565e+02  5.0990552419519673e+02  5.0961063733617010e+02  5.0857301992702048e+02  5.0681380210211665e+02  5.0436021435610826e+02  5.0125515524181225e+02  4.9755650236379802e+02  4.9333941840643229e+02  4.8869766909847442e+02  4.8374423300104093e+02  4.7861095354130288e+02  4.7344555809832553e+02  4.6840645776081908e+02  4.6365313617809591e+02  4.5933431692252231e+02  4.5557413158367615e+02  4.5246179836501960e+02  4.5004775641277445e+02  4.4834968100282646e+02  4.4736363292341929e+02  4.4708505886441890e+02  4.8945044718300500e+02  4.8914187671964885e+02  4.8805490238526386e+02  4.8620927993233380e+02  4.8362956333969049e+02  4.8035512953840572e+02  4.7643993513721585e+02  4.7195562571259694e+02  4.6699444301102034e+02  4.6167142259475605e+02  4.5612682230586580e+02  4.5052435260120592e+02  4.4504772542307967e+02  4.3988765653569237e+02  4.3522578151707950e+02  4.3121058914015737e+02  4.2793951555400821e+02  4.2545059880158175e+02  4.2373322614321131e+02  4.2275164706911721e+02  4.2247671949856800e+02  4.6977440022658078e+02  4.6944805007218707e+02  4.6829714315697578e+02  4.6633918376692259e+02  4.6359447770868371e+02  4.6009675700465789e+02  4.5589349239703267e+02  4.5104987882059447e+02  4.4565402176983673e+02  4.3982104147870035e+02  4.3370075441091859e+02  4.2747720730524532e+02  4.2137139661309294e+02  4.1562211376867037e+02  4.1046768962887501e+02  4.0609990920922803e+02  4.0263292325051788e+02  4.0008126065511766e+02  3.9838072148501129e+02  3.9743711566754342e+02  3.9717735954881175e+02  4.5092255329689243e+02  4.5057502673914325e+02  4.4934811009284607e+02  4.4725608767131007e+02  4.4431320673476677e+02  4.4054489661752484e+02  4.3598854169959361e+02  4.3069817655226774e+02  4.2475275609785768e+02  4.1826158900983802e+02  4.1138150246836125e+02  4.0431615796924865e+02  3.9733886822820358e+02  3.9075949736438747e+02  3.8491791668728786e+02  3.8008333216167011e+02  3.7640787935922953e+02  3.7386011264060369e+02  3.7227240438409075e+02  3.7144357257026974e+02  3.7122403992783569e+02  4.3294840106307566e+02  4.3257728393962344e+02  4.3126578891067629e+02  4.2902396646531940e+02  4.2585803949990242e+02  4.2178202549315159e+02  4.1681850318791174e+02  4.1100351996686845e+02  4.0439805984450902e+02  3.9709267099775144e+02  3.8924309691102746e+02  3.8106306085963166e+02  3.7289961507139532e+02  3.6515431998959104e+02  3.5835235864903041e+02  3.5289877091342078e+02  3.4905014959894351e+02  3.4667848986492697e+02  3.4540891208885051e+02  3.4484656916942146e+02  3.4471514326120138e+02  4.1591124630353426e+02  4.1551539274351387e+02  4.1411529748953654e+02  4.1171586435884075e+02  4.0831345664094101e+02  4.0390755083403599e+02  3.9850067789250409e+02  3.9210287715421583e+02  3.8474485960663458e+02  3.7648001242543614e+02  3.6744835640933923e+02  3.5783368000707600e+02  3.4806728359133598e+02  3.3862653410910372e+02  3.3041936199688803e+02  3.2408933174503505e+02  3.2020900310504101e+02  3.1839616498015374e+02  3.1784602303133187e+02  3.1782614254365336e+02  3.1786642728643341e+02  3.9987297834210557e+02  3.9945275819903435e+02  3.9796549949201398e+02  3.9541036485689949e+02  3.9177257307387106e+02  3.8703453499571316e+02  3.8117383660673721e+02  3.7416586654886089e+02  3.6599396596087911e+02  3.5664729879326489e+02  3.4620515149049095e+02  3.3472924129396665e+02  3.2277501327725531e+02  3.1080323489049346e+02  3.0052249552805876e+02  2.9280871864640500e+02  2.8929494881641892e+02  2.8885315755114101e+02  2.8977088269245189e+02  2.9075352333512791e+02  2.9109970707019704e+02  3.8489425605124416e+02  3.8445170668957036e+02  3.8288475335666936e+02  3.8018680678345271e+02  3.7633176414456477e+02  3.7128410342941703e+02  3.6499397890409716e+02  3.5739640734021589e+02  3.4841365242327322e+02  3.3795021798159758e+02  3.2596884490655447e+02  3.1234644772167871e+02  2.9771967634649030e+02  2.8187526172114070e+02  2.6809477754497431e+02  2.5727025595619244e+02  2.5527346741557616e+02  2.5799598206533233e+02  2.6164800177064416e+02  2.6433045907605970e+02  2.6516494962465555e+02  3.7103034570157956e+02  3.7056915950341153e+02  3.6893598365961196e+02  3.6611925513729022e+02  3.6208292030137221e+02  3.5677519384776866e+02  3.5012026467794857e+02  3.4201215037161091e+02  3.3230490620735156e+02  3.2079587683468520e+02  3.0723907332719597e+02  2.9118731257033215e+02  2.7275032497847110e+02  2.5023966758164261e+02  2.3058549250918188e+02  2.1260556617003689e+02  2.1687109695926677e+02  2.2612680953096449e+02  2.3457858928248373e+02  2.3975220213697438e+02  2.4126925986816417e+02  3.5832703191611313e+02  3.5785232915496715e+02  3.5617158255948971e+02  3.5326988582004930e+02  3.4910435277702231e+02  3.4361177323927808e+02  3.3669750956640110e+02  3.2822438098546155e+02  3.1799273254889880e+02  3.0570962349351231e+02  2.9094200192715164e+02  2.7299958056602304e+02  2.5121090167092518e+02  2.2291384652021338e+02  1.9343289468822013e+02  1.5036140226732121e+02  1.7190054013574516e+02  1.9572346831481227e+02  2.1070626775761596e+02  2.1885374085830992e+02  2.2108130031576866e+02  3.4681713530909883e+02  3.4633500951057783e+02  3.4462884597093625e+02  3.4168269960961766e+02  3.3745138128645499e+02  3.3186773654779245e+02  3.2483026232990665e+02  3.1618948527611883e+02  3.0572255889404823e+02  2.9308815287270710e+02  2.7773246072549182e+02  2.5869389568146329e+02  2.3405420644645909e+02  1.9880298128012879e+02  1.4434308236256589e+02  0.0000000000000000e+00  1.3136489438961371e+02  1.7257714902573656e+02  1.9399760702627486e+02  2.0380839379751174e+02  2.0637770855908039e+02  3.3651819329201049e+02  3.3603507633499493e+02  3.3432680248666611e+02  3.3137896822081461e+02  3.2714920928920645e+02  3.2157509712472574e+02  3.1456268628534252e+02  3.0597485865886233e+02  2.9561014604917426e+02  2.8316720111959512e+02  2.6818364273408361e+02  2.4993113815330560e+02  2.2721072435585498e+02  1.9856737425854470e+02  1.6163055629208654e+02  1.2723958467263513e+02  1.5747392797934805e+02  1.7388454747715878e+02  1.8859638510104267e+02  1.9592272548801645e+02  1.9802477966248705e+02  3.2743173072801648e+02  3.2695368385874218e+02  3.2526513118963987e+02  3.2235556286483057e+02  3.1819007414607813e+02  3.1271869202014858e+02  3.0586763043125967e+02  2.9753288980197942e+02  2.8756952979284483e+02  2.7577872023091919e+02  2.6189668780308568e+02  2.4559964749343115e+02  2.2662859751535399e+02  2.0504833231813984e+02  1.8309303207495978e+02  1.6634763041723059e+02  1.7187719970369204e+02  1.7891904645148639e+02  1.8844627682427580e+02  1.9327641444356973e+02  1.9480823779396320e+02  3.1954429826496454e+02  3.1907634706245932e+02  3.1742547654738945e+02  3.1458674167416211e+02  3.1053593142316367e+02  3.0524058964779545e+02  2.9865458165550939e+02  2.9071751348242759e+02  2.8135439423872617e+02  2.7048127995681688e+02  2.5802560972308180e+02  2.4398737025741281e+02  2.2857473329472296e+02  2.1256925966962180e+02  1.9776868016469035e+02  1.8784712391831883e+02  1.8679851311033659e+02  1.8863460000008274e+02  1.9234585093820766e+02  1.9453437688696869e+02  1.9534401194871734e+02  3.1283009185135580e+02  3.1237577569841812e+02  3.1077492224943808e+02  3.0802900510982079e+02  3.0412591618650066e+02  2.9905253716404479e+02  2.9279211570733031e+02  2.8532807791804669e+02  2.7665029359374967e+02  2.6676966255098654e+02  2.5574851911465367e+02  2.4375889581880719e+02  2.3119151887227773e+02  2.1880440996790375e+02  2.0790384657322957e+02  2.0017552620052422e+02  1.9670964876667429e+02  1.9583218729607381e+02  1.9663500613579288e+02  1.9740148548712969e+02  1.9773033602865209e+02  3.0725487439326417e+02  3.0681584471392938e+02  3.0527092612663427e+02  3.0262778853847658e+02  2.9888625104090312e+02  2.9405155867401811e+02  2.8813369286383829e+02  2.8115349664587893e+02  2.7315144709539976e+02  2.6420358302806062e+02  2.5444788730187753e+02  2.4412582862159934e+02  2.3363751731517115e+02  2.2359838922528647e+02  2.1483042780485471e+02  2.0818382056119762e+02  2.0406904931580976e+02  2.0193751119036313e+02  2.0118230698611319e+02  2.0096546809546163e+02  2.0094652669462650e+02  3.0278000434797394e+02  3.0235656140194402e+02  3.0086683210589922e+02  2.9832468692163667e+02  2.9474020591614544e+02  2.9013428005074837e+02  2.8453859959076811e+02  2.7800244649959080e+02  2.7060123364403211e+02  2.6244973748847849e+02  2.5372053298730006e+02  2.4466701006195728e+02  2.3564583231941856e+02  2.2712225404091470e+02  2.1962891467415707e+02  2.1363878674307384e+02  2.0935899063383872e+02  2.0660615750470285e+02  2.0505969503437268e+02  2.0430669008087912e+02  2.0411369266303021e+02  2.9936850684693877e+02  2.9895760749006928e+02  2.9751710083398564e+02  2.9506373790378524e+02  2.9161624804595021e+02  2.8720750489475961e+02  2.8188519855198012e+02  2.7571826205978050e+02  2.6880391475849314e+02  2.6127721963909306e+02  2.5332198863749642e+02  2.4518099314710014e+02  2.3715999596584612e+02  2.2961598125072547e+02  2.2291649908385662e+02  2.1736345877500503e+02  2.1310339205214837e+02  2.1009097511090394e+02  2.0817047239351828e+02  2.0713504736981599e+02  2.0685037344357306e+02  2.9698344806338338e+02  2.9658587530109742e+02  2.9518230286077966e+02  2.9279738410195557e+02  2.8945477871064514e+02  2.8519551832570630e+02  2.8007800070297588e+02  2.7418339057198489e+02  2.6762125295326285e+02  2.6053589832402275e+02  2.5311201814203056e+02  2.4557728550622730e+02  2.3819804128981912e+02  2.3126300805923495e+02  2.2505107108982449e+02  2.1978558280628553e+02  2.1559102235694039e+02  2.1247995081798163e+02  2.1038755927802637e+02  2.0921222732701150e+02  2.0888423311959230e+02  2.9561207909047533e+02  2.9520967811169783e+02  2.9382966603580064e+02  2.9148807182837152e+02  2.8820970622558565e+02  2.8404193734255148e+02  2.7904846692817199e+02  2.7331712515260148e+02  2.6696338138296119e+02  2.6013506037234117e+02  2.5301495025946